 Gaussian 09, Revision D.01,
 Gaussian 09:  EM64L-G09RevD.01 24-Apr-2013

 ----------------------------------------------------------------------
 #p B3LYP/6-31g(d,p) opt=Z-Matrix nosym temperature=300 pop=full gfinpu
 t
 ----------------------------------------------------------------------

 ---------------------------
 ch4+h to ch3+h2 pulling hh7
 ---------------------------
 Symbolic Z-matrix:
 Charge =  0 Multiplicity = 2

 SCF Done:  E(UB3LYP) =  -41.0244945896     A.U. after   11 cycles
 SCF Done:  E(UB3LYP) =  -41.0244962596     A.U. after    6 cycles
 Optimization completed.
    -- Stationary point found.
 SCF Done:  E(UB3LYP) =  -41.0244809137     A.U. after    9 cycles
 Optimization completed.
 SCF Done:  E(UB3LYP) =  -41.0244463380     A.U. after    9 cycles
 SCF Done:  E(UB3LYP) =  -41.0243835948     A.U. after    9 cycles
 SCF Done:  E(UB3LYP) =  -41.0243840607     A.U. after    6 cycles
 SCF Done:  E(UB3LYP) =  -41.0242820670     A.U. after    9 cycles
 SCF Done:  E(UB3LYP) =  -41.0241258365     A.U. after   10 cycles
 SCF Done:  E(UB3LYP) =  -41.0241268912     A.U. after    7 cycles
 SCF Done:  E(UB3LYP) =  -41.0238997807     A.U. after   10 cycles
                       ! Non-Optimized Parameters !
 SCF Done:  E(UB3LYP) =  -41.0046145019     A.U. after    6 cycles
 SCF Done:  E(UB3LYP) =  -41.0046147453     A.U. after    7 cycles
 SCF Done:  E(UB3LYP) =  -41.0046147966     A.U. after    6 cycles
 SCF Done:  E(UB3LYP) =  -41.0046148722     A.U. after    6 cycles
 SCF Done:  E(UB3LYP) =  -41.0046150185     A.U. after    6 cycles
 SCF Done:  E(UB3LYP) =  -41.0046152391     A.U. after    6 cycles
 SCF Done:  E(UB3LYP) =  -41.0046156550     A.U. after    7 cycles
 SCF Done:  E(UB3LYP) =  -41.0046158276     A.U. after    7 cycles
 SCF Done:  E(UB3LYP) =  -41.0046155571     A.U. after   10 cycles
 SCF Done:  E(UB3LYP) =  -41.0046158810     A.U. after    5 cycles
 Optimization completed.
    -- Stationary point found.

                         Z-Matrix orientation:
 ---------------------------------------------------------------------
 Center     Atomic      Atomic             Coordinates (Angstroms)
 Number     Number       Type             X           Y           Z
 ---------------------------------------------------------------------
      1          6           0        0.000000    0.000000    0.000000
      2          1           0        0.000000    0.000000    1.081957
      3          1           0        0.937112    0.000000   -0.540787
      4          1           0       -0.936464   -0.034632   -0.540796
      5          1           0       -0.073575    3.046192   -0.040884
      6         -1           0       -0.837815    3.035779    0.603964
      7          1           0       -0.089848    3.651912   -0.054887
 ---------------------------------------------------------------------

 Alpha  occ. eigenvalues --  -10.19485  -0.68333  -0.45702  -0.41762  -0.41762
 Alpha  occ. eigenvalues --   -0.22723
 Alpha virt. eigenvalues --    0.11115   0.15075   0.18045   0.18045   0.48832
 Alpha virt. eigenvalues --    0.53716   0.53716   0.59333   0.73159   0.88785
 Alpha virt. eigenvalues --    0.88786   0.94810   1.23651   1.43352   1.43353

  Beta  occ. eigenvalues --  -10.18094  -0.64263  -0.45638  -0.40768  -0.40768
  Beta virt. eigenvalues --   -0.05563   0.12568   0.15800   0.18585   0.18585
  Beta virt. eigenvalues --    0.50823   0.54487   0.54488   0.64714   0.75514
  Beta virt. eigenvalues --    0.89132   0.89132   0.97555   1.23832   1.47967

 Mulliken charges and spin densities:
               1          2
     1  C   -0.367594   1.134673
     2  H    0.125093  -0.047914
     3  H    0.125107  -0.047914
     4  H    0.125124  -0.047914
     5  H    0.005012   0.001195
     6  H   -0.012742   0.007873
 Sum of Mulliken charges =  -0.00000   1.00000

 Dipole moment (field-independent basis, Debye):
    X=              0.0037    Y=             -0.1601    Z=              0.0022  Tot=              0.1602
 Quadrupole moment (field-independent basis, Debye-Ang):
   XX=             -8.8451   YY=            -10.4803   ZZ=             -8.8447
   XY=              0.0297   XZ=             -0.0002   YZ=              0.0149

 Normal termination of Gaussian 09 at Fri Sep 13 21:38:33 2024.
