 Gaussian 09, Revision D.01,
 Gaussian 09:  EM64L-G09RevD.01 24-Apr-2013

 ----------------------------------------------------------------------
 #p B3LYP/6-31g(d,p) opt=Z-Matrix nosym temperature=300 pop=full gfinpu
 t
 ----------------------------------------------------------------------

 ---------------------------
 ch4+h to ch3+h2 pulling hh7
 ---------------------------
 Symbolic Z-matrix:
 Charge =  0 Multiplicity = 2

 SCF Done:  E(UB3LYP) =  -41.0244942079     A.U. after   11 cycles
 SCF Done:  E(UB3LYP) =  -41.0244957839     A.U. after    6 cycles
 Optimization completed.
    -- Stationary point found.
 SCF Done:  E(UB3LYP) =  -41.0244795396     A.U. after    9 cycles
 Optimization completed.
 SCF Done:  E(UB3LYP) =  -41.0244436452     A.U. after    9 cycles
 SCF Done:  E(UB3LYP) =  -41.0243789833     A.U. after    9 cycles
 SCF Done:  E(UB3LYP) =  -41.0243794391     A.U. after    6 cycles
 SCF Done:  E(UB3LYP) =  -41.0242748050     A.U. after    9 cycles
 SCF Done:  E(UB3LYP) =  -41.0241149917     A.U. after   10 cycles
 SCF Done:  E(UB3LYP) =  -41.0241160674     A.U. after    7 cycles
 SCF Done:  E(UB3LYP) =  -41.0238842999     A.U. after   10 cycles
 SCF Done:  E(UB3LYP) =  -41.0207913430     A.U. after    7 cycles
 SCF Done:  E(UB3LYP) =  -41.0207913944     A.U. after    6 cycles
 SCF Done:  E(UB3LYP) =  -41.0207914886     A.U. after    6 cycles
 SCF Done:  E(UB3LYP) =  -41.0207916404     A.U. after    7 cycles
 SCF Done:  E(UB3LYP) =  -41.0206768801     A.U. after   11 cycles
 SCF Done:  E(UB3LYP) =  -41.0207916415     A.U. after    7 cycles
    -- Stationary point found.
 SCF Done:  E(UB3LYP) =  -41.0028320711     A.U. after    9 cycles
 SCF Done:  E(UB3LYP) =  -41.0028483913     A.U. after   11 cycles
 SCF Done:  E(UB3LYP) =  -41.0028584299     A.U. after   10 cycles
 SCF Done:  E(UB3LYP) =  -41.0028584952     A.U. after    6 cycles
 Optimization completed.
    -- Stationary point found.

                         Z-Matrix orientation:
 ---------------------------------------------------------------------
 Center     Atomic      Atomic             Coordinates (Angstroms)
 Number     Number       Type             X           Y           Z
 ---------------------------------------------------------------------
      1          6           0        0.000000    0.000000    0.000000
      2          1           0        0.000000    0.000000    1.081959
      3          1           0        0.936917    0.000000   -0.541091
      4          1           0       -0.936694   -0.033877   -0.540472
      5          1           0       -0.093799    3.051092   -0.091585
      6         -1           0       -0.014417    3.073918    0.936804
      7          1           0       -0.121489    3.650375   -0.115546
 ---------------------------------------------------------------------

 Alpha  occ. eigenvalues --  -10.19481  -0.68329  -0.45846  -0.41763  -0.41756
 Alpha  occ. eigenvalues --   -0.22720
 Alpha virt. eigenvalues --    0.11124   0.15204   0.18046   0.18049   0.48702
 Alpha virt. eigenvalues --    0.53715   0.53723   0.59289   0.73113   0.88785
 Alpha virt. eigenvalues --    0.88792   0.94816   1.24209   1.43352   1.43362

  Beta  occ. eigenvalues --  -10.18090  -0.64259  -0.45783  -0.40768  -0.40761
  Beta virt. eigenvalues --   -0.05555   0.12585   0.15916   0.18586   0.18589
  Beta virt. eigenvalues --    0.50650   0.54490   0.54495   0.64704   0.75475
  Beta virt. eigenvalues --    0.89132   0.89138   0.97564   1.24383   1.47967

 Mulliken charges and spin densities:
               1          2
     1  C   -0.367580   1.134829
     2  H    0.125040  -0.047922
     3  H    0.125075  -0.047922
     4  H    0.125107  -0.047921
     5  H    0.004994   0.001251
     6  H   -0.012635   0.007686
 Sum of Mulliken charges =  -0.00000   1.00000

 Dipole moment (field-independent basis, Debye):
    X=              0.0046    Y=             -0.1578    Z=              0.0043  Tot=              0.1579
 Quadrupole moment (field-independent basis, Debye-Ang):
   XX=             -8.8367   YY=            -10.4723   ZZ=             -8.8368
   XY=              0.0259   XZ=             -0.0007   YZ=              0.0152

 Normal termination of Gaussian 09 at Fri Sep 13 16:26:26 2024.
