 Gaussian 09, Revision D.01,
 Gaussian 09:  EM64L-G09RevD.01 24-Apr-2013

 ----------------------------------------------------------------------
 #p wb97xd/6-31g(d,p) opt=(Z-Matrix) scf=(Maxconventionalcycles=100,xqc
 ) nosym temperature=300 pop=full gfinput
 ----------------------------------------------------------------------

 ---------------------------
 nh3+h to nh2+h2 pushing hn3
 ---------------------------
 Symbolic Z-matrix:
 Charge =  0 Multiplicity = 2

 SCF Done:  E(UwB97XD) =  -57.0301469190     A.U. after   12 cycles
 SCF Done:  E(UwB97XD) =  -57.0302425139     A.U. after   10 cycles
 SCF Done:  E(UwB97XD) =  -57.0305421097     A.U. after   10 cycles
 SCF Done:  E(UwB97XD) =  -57.0308246580     A.U. after   10 cycles
 SCF Done:  E(UwB97XD) =  -57.0308733145     A.U. after   11 cycles
 SCF Done:  E(UwB97XD) =  -57.0308976834     A.U. after   11 cycles
 SCF Done:  E(UwB97XD) =  -57.0308982992     A.U. after   41 cycles
 SCF Done:  E(UwB97XD) =  -57.0308983421     A.U. after   32 cycles
 SCF Done:  E(UwB97XD) =  -57.0308983515     A.U. after    6 cycles
 Optimization completed.
    -- Stationary point found.
 SCF Done:  E(UwB97XD) =  -57.0227024494     A.U. after   15 cycles
 Optimization completed.
 SCF Done:  E(UwB97XD) =  -56.8176010205     A.U. after   16 cycles
 SCF Done:  E(UwB97XD) =  -56.8176010862     A.U. after    8 cycles
 SCF Done:  E(UwB97XD) =  -56.8084791296     A.U. after   15 cycles
 SCF Done:  E(UwB97XD) =  -56.8084836130     A.U. after   11 cycles
 SCF Done:  E(UwB97XD) =  -56.8084836551     A.U. after    8 cycles
 SCF Done:  E(UwB97XD) =  -56.8000377038     A.U. after   15 cycles
 SCF Done:  E(UwB97XD) =  -56.8000403358     A.U. after   11 cycles
 SCF Done:  E(UwB97XD) =  -56.8000403704     A.U. after    8 cycles
    -- Stationary point found.
 SCF Done:  E(UwB97XD) =  -56.7922186357     A.U. after   15 cycles
 SCF Done:  E(UwB97XD) =  -56.7922196937     A.U. after    9 cycles
 Optimization completed.
    -- Stationary point found.

                         Z-Matrix orientation:
 ---------------------------------------------------------------------
 Center     Atomic      Atomic             Coordinates (Angstroms)
 Number     Number       Type             X           Y           Z
 ---------------------------------------------------------------------
      1          7           0        0.000000    0.000000    0.000000
      2          1           0        0.000000    0.000000    1.028599
      3          1           0        2.788381    0.000000    0.273884
      4          1           0        0.124340   -0.996112   -0.224444
      5         -1           0        2.655615    0.011596   -0.738885
      6          1           0        8.215127   -0.633858    0.656255
 ---------------------------------------------------------------------

 Alpha  occ. eigenvalues --  -14.50684  -0.94189  -0.56213  -0.41167  -0.40083
 Alpha  occ. eigenvalues --   -0.32914
 Alpha virt. eigenvalues --   -0.11576   0.16738   0.23464   0.74255   0.75985
 Alpha virt. eigenvalues --    0.78135   0.80228   0.85776   0.94104   0.95939
 Alpha virt. eigenvalues --    1.09661   1.54413   1.54699   1.64640   2.04062

  Beta  occ. eigenvalues --  -14.50684  -0.94189  -0.56213  -0.41167  -0.32914
  Beta virt. eigenvalues --   -0.11576   0.16738   0.23464   0.62306   0.74255
  Beta virt. eigenvalues --    0.75985   0.78135   0.85776   0.94104   0.95939
  Beta virt. eigenvalues --    1.09661   1.54413   1.54699   1.64640   1.71614

 Mulliken charges and spin densities:
               1          2
     1  N   -0.512480   0.000006
     2  H    0.275932  -0.000000
     3  H   -0.039269  -0.000005
     4  H    0.275818  -0.000000
     5  H    0.000000   1.000000
 Sum of Mulliken charges =  -0.00000   1.00000

 Dipole moment (field-independent basis, Debye):
    X=             -0.2107    Y=             -1.6514    Z=              1.2924  Tot=              2.1076
 Quadrupole moment (field-independent basis, Debye-Ang):
   XX=             -9.8739   YY=             -8.8762   ZZ=             -8.5890
   XY=             -0.0808   XZ=             -0.1135   YZ=              0.6220

 Normal termination of Gaussian 09 at Sat Sep 14 11:55:45 2024.
