 Gaussian 09, Revision A.02,
 Gaussian 09:  EM64L-G09RevA.02 11-Jun-2009

 ----------------------------------------
 #p mp2/6-31++G opt freq pop=full gfinput
 ----------------------------------------

 -------------------------------------------------
 hydrogen(molecule) with hf/6-31++G basis function
 -------------------------------------------------
 Symbolic Z-matrix:
 Charge =  0 Multiplicity = 1

 SCF Done:  E(RHF) =  -1.12685574032     A.U. after    5 cycles
 E2 =    -0.1746876304D-01 EUMP2 =    -0.11443245033606D+01
 SCF Done:  E(RHF) =  -1.12688177956     A.U. after    4 cycles
 E2 =    -0.1744585880D-01 EUMP2 =    -0.11443276383555D+01
 Optimization completed.
    -- Stationary point found.
 Normal termination of Gaussian 09 at Sat Aug 17 19:57:15 2024.

 ---------------------------------------------------------------------
 #P Geom=AllCheck Guess=TCheck SCRF=Check GenChk RMP2(FC)/6-31++G Freq
 ---------------------------------------------------------------------

 hydrogen(molecule) with hf/6-31++G basis function
 -------------------------------------------------
 Redundant internal coordinates taken from checkpoint file:
 /home/ospite/Desktop/MMfP/Project6/H2/g09/MP2/Gau-12994.chk
 Charge =  0 Multiplicity = 1

                         Standard orientation:
 ---------------------------------------------------------------------
 Center     Atomic      Atomic             Coordinates (Angstroms)
 Number     Number       Type             X           Y           Z
 ---------------------------------------------------------------------
      1          1           0        0.000000    0.000000    0.368948
      2          1           0        0.000000    0.000000   -0.368948
 ---------------------------------------------------------------------

 SCF Done:  E(RHF) =  -1.12688177956     A.U. after    1 cycles
 E2 =    -0.1744585880D-01 EUMP2 =    -0.11443276383555D+01
 E2 =    -0.1744585880D-01 EUMP2 =    -0.11443276383555D+01

 The electronic state is 1-SGG.
 Alpha  occ. eigenvalues --   -0.59732
 Alpha virt. eigenvalues --    0.07534   0.08867   0.30440   0.94492   1.48359

 Mulliken atomic charges:
              1
     1  H    0.000000
     2  H    0.000000
 Sum of Mulliken atomic charges =   0.00000

 Dipole moment (field-independent basis, Debye):
    X=              0.0000    Y=              0.0000    Z=             -0.0000  Tot=              0.0000
 Quadrupole moment (field-independent basis, Debye-Ang):
   XX=             -2.0680   YY=             -2.0680   ZZ=             -1.6492
   XY=              0.0000   XZ=             -0.0000   YZ=              0.0000

  Exact polarizability:   0.000   0.000   0.000  -0.000   0.000   6.549
 Approx polarizability:   0.000  -0.000  -0.000  -0.000  -0.000   5.180

                     1
                    SGG
 Frequencies --  4521.7791
 Red. masses --     1.0078
 Frc consts  --    12.1410
 IR Inten    --     0.0000

 - Thermochemistry -
 -------------------
 Temperature   298.150 Kelvin.  Pressure   1.00000 Atm.
 Atom     1 has atomic number  1 and mass   1.00783

 Molecular mass:     2.01565 amu.
 Principal axes and moments of inertia in atomic units:
                           1         2         3
     Eigenvalues --     0.00000   0.97981   0.97981
           X           -0.00000   1.00000  -0.00000
           Y            0.00000   0.00000   1.00000
           Z            1.00000   0.00000  -0.00000
 This molecule is a prolate symmetric top.
 Rotational symmetry number  2.
 Rotational temperature (Kelvin)     88.39841
 Rotational constant (GHZ):        1841.926215
 Zero-point vibrational energy      27046.2 (Joules/Mol)
                                    6.46421 (Kcal/Mol)
 Vibrational temperatures:   6505.82
          (Kelvin)

 Zero-point correction=                           0.010301 (Hartree/Particle)
 Thermal correction to Energy=                    0.012662
 Thermal correction to Enthalpy=                  0.013606
 Thermal correction to Gibbs Free Energy=        -0.001173
 Sum of electronic and zero-point Energies=             -1.134026
 Sum of electronic and thermal Energies=                -1.131666
 Sum of electronic and thermal Enthalpies=              -1.130722
 Sum of electronic and thermal Free Energies=           -1.145501

                     E (Thermal)             CV                S
                      KCal/Mol        Cal/Mol-Kelvin    Cal/Mol-Kelvin
 Total                    7.945              4.968             31.106
 Electronic               0.000              0.000              0.000
 Translational            0.889              2.981             28.080
 Rotational               0.592              1.987              3.026
 Vibrational              6.464              0.000              0.000

 Optimization completed.
    -- Stationary point found.
 Normal termination of Gaussian 09 at Sat Aug 17 19:57:18 2024.
