 Gaussian 09, Revision A.02,
 Gaussian 09:  EM64L-G09RevA.02 11-Jun-2009

 --------------------------------------------
 #p mp2/aug-cc-pVDZ opt freq pop=full gfinput
 --------------------------------------------

 --------------------------------------------------------
 hydrogen (moldecule) with and aug-cc-pVDZ basis function
 --------------------------------------------------------
 Symbolic Z-matrix:
 Charge =  0 Multiplicity = 1

 SCF Done:  E(RHF) =  -1.12877827539     A.U. after    6 cycles
 E2 =    -0.2728215350D-01 EUMP2 =    -0.11560604288877D+01
 SCF Done:  E(RHF) =  -1.12879128068     A.U. after    5 cycles
 E2 =    -0.2742515511D-01 EUMP2 =    -0.11562164357907D+01
 Optimization completed.
    -- Stationary point found.
 Normal termination of Gaussian 09 at Sat Aug 17 19:57:53 2024.

 ----------------------------------------------------------------------
 #P Geom=AllCheck Guess=TCheck SCRF=Check GenChk RMP2(FC)/Aug-CC-pVDZ F
 req
 ----------------------------------------------------------------------

 hydrogen (moldecule) with and aug-cc-pVDZ basis function
 --------------------------------------------------------
 Redundant internal coordinates taken from checkpoint file:
 /home/ospite/Desktop/MMfP/Project6/H2/g09/MP2/Gau-13031.chk
 Charge =  0 Multiplicity = 1

                         Standard orientation:
 ---------------------------------------------------------------------
 Center     Atomic      Atomic             Coordinates (Angstroms)
 Number     Number       Type             X           Y           Z
 ---------------------------------------------------------------------
      1          1           0        0.000000    0.000000    0.377589
      2          1           0        0.000000    0.000000   -0.377589
 ---------------------------------------------------------------------

 SCF Done:  E(RHF) =  -1.12879128068     A.U. after    1 cycles
 E2 =    -0.2742515504D-01 EUMP2 =    -0.11562164357185D+01
 E2 =    -0.2742515504D-01 EUMP2 =    -0.11562164357185D+01

 The electronic state is 1-SGG.
 Alpha  occ. eigenvalues --   -0.58823
 Alpha virt. eigenvalues --    0.06130   0.06719   0.23063   0.28443   0.28443
 Alpha virt. eigenvalues --    0.41647   0.45784   0.45784   0.55782   0.72051
 Alpha virt. eigenvalues --    1.21618   1.60407   1.60407   2.07004   2.23418

 Mulliken atomic charges:
              1
     1  H   -0.000000
     2  H   -0.000000
 Sum of Mulliken atomic charges =  -0.00000

 Dipole moment (field-independent basis, Debye):
    X=             -0.0000    Y=              0.0000    Z=              0.0000  Tot=              0.0000
 Quadrupole moment (field-independent basis, Debye-Ang):
   XX=             -2.0825   YY=             -2.0825   ZZ=             -1.4499
   XY=             -0.0000   XZ=             -0.0000   YZ=              0.0000

  Exact polarizability:   4.448   0.000   4.448  -0.000  -0.000   6.731
 Approx polarizability:   3.228  -0.000   3.228  -0.000  -0.000   5.073

                     1
                    SGG
 Frequencies --  4460.2520
 Red. masses --     1.0078
 Frc consts  --    11.8128
 IR Inten    --     0.0000

 - Thermochemistry -
 -------------------
 Temperature   298.150 Kelvin.  Pressure   1.00000 Atm.
 Atom     1 has atomic number  1 and mass   1.00783

 Molecular mass:     2.01565 amu.
 Principal axes and moments of inertia in atomic units:
                           1         2         3
     Eigenvalues --    -0.00000   1.02625   1.02625
           X           -0.00000   1.00000  -0.00000
           Y            0.00000   0.00000   1.00000
           Z            1.00000   0.00000  -0.00000
 This molecule is a prolate symmetric top.
 Rotational symmetry number  2.
 Rotational temperature (Kelvin)     84.39866
 Rotational constant (GHZ):        1758.584821
 Zero-point vibrational energy      26678.2 (Joules/Mol)
                                    6.37625 (Kcal/Mol)
 Vibrational temperatures:   6417.30
          (Kelvin)

 Zero-point correction=                           0.010161 (Hartree/Particle)
 Thermal correction to Energy=                    0.012522
 Thermal correction to Enthalpy=                  0.013466
 Thermal correction to Gibbs Free Energy=        -0.001357
 Sum of electronic and zero-point Energies=             -1.146055
 Sum of electronic and thermal Energies=                -1.143695
 Sum of electronic and thermal Enthalpies=              -1.142751
 Sum of electronic and thermal Free Energies=           -1.157574

                     E (Thermal)             CV                S
                      KCal/Mol        Cal/Mol-Kelvin    Cal/Mol-Kelvin
 Total                    7.857              4.968             31.198
 Electronic               0.000              0.000              0.000
 Translational            0.889              2.981             28.080
 Rotational               0.592              1.987              3.118
 Vibrational              6.376              0.000              0.000

 Optimization completed.
    -- Stationary point found.
 Normal termination of Gaussian 09 at Sat Aug 17 19:57:56 2024.
