 Gaussian 09, Revision A.02,
 Gaussian 09:  EM64L-G09RevA.02 11-Jun-2009

 ----------------------------------------
 #p mp2/cc-pVTZ opt freq pop=full gfinput
 ----------------------------------------

 -----------------------------------------
 hydogen (molecule) with cc-pVTZ basis set
 -----------------------------------------
 Symbolic Z-matrix:
 Charge =  0 Multiplicity = 1

 SCF Done:  E(RHF) =  -1.13296768290     A.U. after    6 cycles
 E2 =    -0.3167592435D-01 EUMP2 =    -0.11646436072503D+01
 SCF Done:  E(RHF) =  -1.13298479344     A.U. after    5 cycles
 E2 =    -0.3166498331D-01 EUMP2 =    -0.11646497767436D+01
 Optimization completed.
    -- Stationary point found.
 Normal termination of Gaussian 09 at Sat Aug 17 22:46:17 2024.

 ---------------------------------------------------------------------
 #P Geom=AllCheck Guess=TCheck SCRF=Check GenChk RMP2(FC)/CC-pVTZ Freq
 ---------------------------------------------------------------------

 hydogen (molecule) with cc-pVTZ basis set
 -----------------------------------------
 Redundant internal coordinates taken from checkpoint file:
 /home/ospite/Desktop/MMfP/Project6/H2/g09/MP2/Gau-15578.chk
 Charge =  0 Multiplicity = 1

                         Standard orientation:
 ---------------------------------------------------------------------
 Center     Atomic      Atomic             Coordinates (Angstroms)
 Number     Number       Type             X           Y           Z
 ---------------------------------------------------------------------
      1          1           0        0.000000    0.000000    0.368525
      2          1           0        0.000000    0.000000   -0.368525
 ---------------------------------------------------------------------

 SCF Done:  E(RHF) =  -1.13298479344     A.U. after    1 cycles
 E2 =    -0.3166498331D-01 EUMP2 =    -0.11646497767427D+01
 E2 =    -0.3166498331D-01 EUMP2 =    -0.11646497767427D+01

 The electronic state is 1-SGG.
 Alpha  occ. eigenvalues --   -0.59560
 Alpha virt. eigenvalues --    0.16767   0.30473   0.64503   0.69304   0.69304
 Alpha virt. eigenvalues --    1.09742   1.12061   1.12061   1.53038   2.33717
 Alpha virt. eigenvalues --    2.40534   3.17582   3.17582   3.41448   3.41448

 Mulliken atomic charges:
              1
     1  H   -0.000000
     2  H   -0.000000
 Sum of Mulliken atomic charges =  -0.00000

 Dipole moment (field-independent basis, Debye):
    X=             -0.0000    Y=             -0.0000    Z=              0.0000  Tot=              0.0000
 Quadrupole moment (field-independent basis, Debye-Ang):
   XX=             -2.0852   YY=             -2.0852   ZZ=             -1.4673
   XY=             -0.0000   XZ=             -0.0000   YZ=              0.0000

  Exact polarizability:   2.579   0.000   2.579  -0.000  -0.000   6.477
 Approx polarizability:   2.057  -0.000   2.057  -0.000  -0.000   4.920

                     1
                    SGG
 Frequencies --  4525.8772
 Red. masses --     1.0078
 Frc consts  --    12.1630
 IR Inten    --     0.0000

 - Thermochemistry -
 -------------------
 Temperature   298.150 Kelvin.  Pressure   1.00000 Atm.
 Atom     1 has atomic number  1 and mass   1.00783

 Molecular mass:     2.01565 amu.
 Principal axes and moments of inertia in atomic units:
                           1         2         3
     Eigenvalues --     0.00000   0.97757   0.97757
           X           -0.00000   1.00000  -0.00000
           Y            0.00000   0.00000   1.00000
           Z            1.00000   0.00000  -0.00000
 This molecule is a prolate symmetric top.
 Rotational symmetry number  2.
 Rotational temperature (Kelvin)     88.60134
 Rotational constant (GHZ):        1846.154480
 Zero-point vibrational energy      27070.8 (Joules/Mol)
                                    6.47007 (Kcal/Mol)
 Vibrational temperatures:   6511.72
          (Kelvin)

 Zero-point correction=                           0.010311 (Hartree/Particle)
 Thermal correction to Energy=                    0.012671
 Thermal correction to Enthalpy=                  0.013615
 Thermal correction to Gibbs Free Energy=        -0.001162
 Sum of electronic and zero-point Energies=             -1.154339
 Sum of electronic and thermal Energies=                -1.151979
 Sum of electronic and thermal Enthalpies=              -1.151034
 Sum of electronic and thermal Free Energies=           -1.165812

                     E (Thermal)             CV                S
                      KCal/Mol        Cal/Mol-Kelvin    Cal/Mol-Kelvin
 Total                    7.951              4.968             31.101
 Electronic               0.000              0.000              0.000
 Translational            0.889              2.981             28.080
 Rotational               0.592              1.987              3.021
 Vibrational              6.470              0.000              0.000

 Optimization completed.
    -- Stationary point found.
 Normal termination of Gaussian 09 at Sat Aug 17 22:46:24 2024.
