 Gaussian 09, Revision A.02,
 Gaussian 09:  EM64L-G09RevA.02 11-Jun-2009

 ----------------------------------------
 #p mp2/cc-pVDZ opt freq pop=full gfinput
 ----------------------------------------

 -----------------------------------------
 hydogen (molecule) with cc-pVDZ basis set
 -----------------------------------------
 Symbolic Z-matrix:
 Charge =  0 Multiplicity = 1

 SCF Done:  E(RHF) =  -1.12870009359     A.U. after    5 cycles
 E2 =    -0.2637155766D-01 EUMP2 =    -0.11550716512585D+01
 SCF Done:  E(RHF) =  -1.12871288479     A.U. after    4 cycles
 E2 =    -0.2650525421D-01 EUMP2 =    -0.11552181390042D+01
 SCF Done:  E(RHF) =  -1.12871712639     A.U. after    4 cycles
 E2 =    -0.2650115582D-01 EUMP2 =    -0.11552182822114D+01
 Optimization completed.
    -- Stationary point found.
 Normal termination of Gaussian 09 at Sat Aug 17 22:46:03 2024.

 ---------------------------------------------------------------------
 #P Geom=AllCheck Guess=TCheck SCRF=Check GenChk RMP2(FC)/CC-pVDZ Freq
 ---------------------------------------------------------------------

 hydogen (molecule) with cc-pVDZ basis set
 -----------------------------------------
 Redundant internal coordinates taken from checkpoint file:
 /home/ospite/Desktop/MMfP/Project6/H2/g09/MP2/Gau-15565.chk
 Charge =  0 Multiplicity = 1

                         Standard orientation:
 ---------------------------------------------------------------------
 Center     Atomic      Atomic             Coordinates (Angstroms)
 Number     Number       Type             X           Y           Z
 ---------------------------------------------------------------------
      1          1           0        0.000000    0.000000    0.377181
      2          1           0        0.000000    0.000000   -0.377181
 ---------------------------------------------------------------------

 SCF Done:  E(RHF) =  -1.12871712639     A.U. after    1 cycles
 E2 =    -0.2650115582D-01 EUMP2 =    -0.11552182822114D+01
 E2 =    -0.2650115582D-01 EUMP2 =    -0.11552182822114D+01

 The electronic state is 1-SGG.
 Alpha  occ. eigenvalues --   -0.58811
 Alpha virt. eigenvalues --    0.19467   0.48277   0.92715   1.29136   1.29136
 Alpha virt. eigenvalues --    1.94303   2.03376   2.03376   3.52532

 Mulliken atomic charges:
              1
     1  H   -0.000000
     2  H   -0.000000
 Sum of Mulliken atomic charges =  -0.00000

 Dipole moment (field-independent basis, Debye):
    X=             -0.0000    Y=             -0.0000    Z=              0.0000  Tot=              0.0000
 Quadrupole moment (field-independent basis, Debye-Ang):
   XX=             -2.0556   YY=             -2.0556   ZZ=             -1.4434
   XY=             -0.0000   XZ=             -0.0000   YZ=              0.0000

  Exact polarizability:   1.154   0.000   1.154  -0.000  -0.000   6.530
 Approx polarizability:   0.996  -0.000   0.996  -0.000  -0.000   5.011

                     1
                    SGG
 Frequencies --  4501.2610
 Red. masses --     1.0078
 Frc consts  --    12.0311
 IR Inten    --     0.0000

 - Thermochemistry -
 -------------------
 Temperature   298.150 Kelvin.  Pressure   1.00000 Atm.
 Atom     1 has atomic number  1 and mass   1.00783

 Molecular mass:     2.01565 amu.
 Principal axes and moments of inertia in atomic units:
                           1         2         3
     Eigenvalues --     0.00000   1.02403   1.02403
           X           -0.00000   1.00000  -0.00000
           Y            0.00000   0.00000   1.00000
           Z            1.00000   0.00000  -0.00000
 This molecule is a prolate symmetric top.
 Rotational symmetry number  2.
 Rotational temperature (Kelvin)     84.58137
 Rotational constant (GHZ):        1762.391917
 Zero-point vibrational energy      26923.5 (Joules/Mol)
                                    6.43488 (Kcal/Mol)
 Vibrational temperatures:   6476.30
          (Kelvin)

 Zero-point correction=                           0.010255 (Hartree/Particle)
 Thermal correction to Energy=                    0.012615
 Thermal correction to Enthalpy=                  0.013559
 Thermal correction to Gibbs Free Energy=        -0.001262
 Sum of electronic and zero-point Energies=             -1.144964
 Sum of electronic and thermal Energies=                -1.142603
 Sum of electronic and thermal Enthalpies=              -1.141659
 Sum of electronic and thermal Free Energies=           -1.156480

                     E (Thermal)             CV                S
                      KCal/Mol        Cal/Mol-Kelvin    Cal/Mol-Kelvin
 Total                    7.916              4.968             31.194
 Electronic               0.000              0.000              0.000
 Translational            0.889              2.981             28.080
 Rotational               0.592              1.987              3.113
 Vibrational              6.435              0.000              0.000

 Optimization completed.
    -- Stationary point found.
 Normal termination of Gaussian 09 at Sat Aug 17 22:46:06 2024.
