 Gaussian 09, Revision A.02,
 Gaussian 09:  EM64L-G09RevA.02 11-Jun-2009

 ----------------------------------------
 #p mp2/cc-pVQZ opt freq pop=full gfinput
 ----------------------------------------

 -----------------------------------------
 hydogen (molecule) with cc-pVQZ basis set
 -----------------------------------------
 Symbolic Z-matrix:
 Charge =  0 Multiplicity = 1

 SCF Done:  E(RHF) =  -1.13346696631     A.U. after    6 cycles
 E2 =    -0.3311112181D-01 EUMP2 =    -0.11665780881240D+01
 SCF Done:  E(RHF) =  -1.13349054542     A.U. after    5 cycles
 E2 =    -0.3309825037D-01 EUMP2 =    -0.11665887957961D+01
 Optimization completed.
    -- Stationary point found.
 Normal termination of Gaussian 09 at Sun Aug 18 15:11:39 2024.

 ---------------------------------------------------------------------
 #P Geom=AllCheck Guess=TCheck SCRF=Check GenChk RMP2(FC)/CC-pVQZ Freq
 ---------------------------------------------------------------------

 hydogen (molecule) with cc-pVQZ basis set
 -----------------------------------------
 Redundant internal coordinates taken from checkpoint file:
 /home/ospite/Desktop/MMfP/Project6/H2/g09/MP2/Gau-8081.chk
 Charge =  0 Multiplicity = 1

                         Standard orientation:
 ---------------------------------------------------------------------
 Center     Atomic      Atomic             Coordinates (Angstroms)
 Number     Number       Type             X           Y           Z
 ---------------------------------------------------------------------
      1          1           0        0.000000    0.000000    0.368063
      2          1           0        0.000000    0.000000   -0.368063
 ---------------------------------------------------------------------

 SCF Done:  E(RHF) =  -1.13349054542     A.U. after    1 cycles
 E2 =    -0.3309825037D-01 EUMP2 =    -0.11665887957948D+01
 E2 =    -0.3309825037D-01 EUMP2 =    -0.11665887957948D+01

 The electronic state is 1-SGG.
 Alpha  occ. eigenvalues --   -0.59609
 Alpha virt. eigenvalues --    0.14817   0.23120   0.51043   0.51043   0.52336
 Alpha virt. eigenvalues --    0.80288   0.81490   0.81490   1.10770   1.30740
 Alpha virt. eigenvalues --    1.58695   1.94277   1.94277   2.15472   2.15472

 Mulliken atomic charges:
              1
     1  H   -0.000000
     2  H   -0.000000
 Sum of Mulliken atomic charges =  -0.00000

 Dipole moment (field-independent basis, Debye):
    X=             -0.0000    Y=              0.0000    Z=              0.0000  Tot=              0.0000
 Quadrupole moment (field-independent basis, Debye-Ang):
   XX=             -2.0821   YY=             -2.0821   ZZ=             -1.4391
   XY=             -0.0000   XZ=             -0.0000   YZ=              0.0000

  Exact polarizability:   3.391   0.000   3.391  -0.000  -0.000   6.389
 Approx polarizability:   2.590  -0.000   2.590  -0.000  -0.000   4.848

                     1
                    SGG
 Frequencies --  4519.1316
 Red. masses --     1.0078
 Frc consts  --    12.1268
 IR Inten    --     0.0000

 - Thermochemistry -
 -------------------
 Temperature   298.150 Kelvin.  Pressure   1.00000 Atm.
 Atom     1 has atomic number  1 and mass   1.00783

 Molecular mass:     2.01565 amu.
 Principal axes and moments of inertia in atomic units:
                           1         2         3
     Eigenvalues --     0.00000   0.97512   0.97512
           X           -0.00000   1.00000  -0.00000
           Y            0.00000   0.00000   1.00000
           Z            1.00000   0.00000  -0.00000
 This molecule is a prolate symmetric top.
 Rotational symmetry number  2.
 Rotational temperature (Kelvin)     88.82378
 Rotational constant (GHZ):        1850.789430
 Zero-point vibrational energy      27030.4 (Joules/Mol)
                                    6.46042 (Kcal/Mol)
 Vibrational temperatures:   6502.01
          (Kelvin)

 Zero-point correction=                           0.010295 (Hartree/Particle)
 Thermal correction to Energy=                    0.012656
 Thermal correction to Enthalpy=                  0.013600
 Thermal correction to Gibbs Free Energy=        -0.001175
 Sum of electronic and zero-point Energies=             -1.156293
 Sum of electronic and thermal Energies=                -1.153933
 Sum of electronic and thermal Enthalpies=              -1.152989
 Sum of electronic and thermal Free Energies=           -1.167764

                     E (Thermal)             CV                S
                      KCal/Mol        Cal/Mol-Kelvin    Cal/Mol-Kelvin
 Total                    7.942              4.968             31.096
 Electronic               0.000              0.000              0.000
 Translational            0.889              2.981             28.080
 Rotational               0.592              1.987              3.016
 Vibrational              6.460              0.000              0.000

 Optimization completed.
    -- Stationary point found.
 Normal termination of Gaussian 09 at Sun Aug 18 15:12:14 2024.
