 Gaussian 09, Revision A.02,
 Gaussian 09:  EM64L-G09RevA.02 11-Jun-2009

 ---------------------------------------
 #p mp2/STO-3G opt freq pop=full gfinput
 ---------------------------------------

 -------------------------------------------------
 hydrogen (molecule) with hf/STO-3G basis function
 -------------------------------------------------
 Symbolic Z-matrix:
 Charge =  0 Multiplicity = 1

 SCF Done:  E(RHF) =  -1.11675930734     A.U. after    1 cycles
 E2 =    -0.1313807366D-01 EUMP2 =    -0.11298973809986D+01
 SCF Done:  E(RHF) =  -1.11745550017     A.U. after    1 cycles
 E2 =    -0.1266268934D-01 EUMP2 =    -0.11301181895130D+01
 SCF Done:  E(RHF) =  -1.11737333372     A.U. after    1 cycles
 E2 =    -0.1276354251D-01 EUMP2 =    -0.11301368762304D+01
 Optimization completed.
    -- Stationary point found.
 Normal termination of Gaussian 09 at Sat Aug 17 19:57:34 2024.

 --------------------------------------------------------------------
 #P Geom=AllCheck Guess=TCheck SCRF=Check GenChk RMP2(FC)/STO-3G Freq
 --------------------------------------------------------------------

 hydrogen (molecule) with hf/STO-3G basis function
 -------------------------------------------------
 Redundant internal coordinates taken from checkpoint file:
 /home/ospite/Desktop/MMfP/Project6/H2/g09/MP2/Gau-13012.chk
 Charge =  0 Multiplicity = 1

                         Standard orientation:
 ---------------------------------------------------------------------
 Center     Atomic      Atomic             Coordinates (Angstroms)
 Number     Number       Type             X           Y           Z
 ---------------------------------------------------------------------
      1          1           0        0.000000    0.000000    0.361872
      2          1           0        0.000000    0.000000   -0.361872
 ---------------------------------------------------------------------

 SCF Done:  E(RHF) =  -1.11737333372     A.U. after    1 cycles
 E2 =    -0.1276354251D-01 EUMP2 =    -0.11301368762304D+01
 E2 =    -0.1276354251D-01 EUMP2 =    -0.11301368762304D+01

 The electronic state is 1-SGG.
 Alpha  occ. eigenvalues --   -0.58534
 Alpha virt. eigenvalues --    0.68821

 Mulliken atomic charges:
              1
     1  H   -0.000000
     2  H   -0.000000
 Sum of Mulliken atomic charges =  -0.00000

 Dipole moment (field-independent basis, Debye):
    X=             -0.0000    Y=              0.0000    Z=              0.0000  Tot=              0.0000
 Quadrupole moment (field-independent basis, Debye-Ang):
   XX=             -1.8449   YY=             -1.8449   ZZ=             -1.4391
   XY=              0.0000   XZ=             -0.0000   YZ=              0.0000

  Exact polarizability:   0.000   0.000   0.000  -0.000   0.000   2.816
 Approx polarizability:   0.000  -0.000  -0.000  -0.000  -0.000   2.669

                     1
                    SGG
 Frequencies --  5245.3142
 Red. masses --     1.0078
 Frc consts  --    16.3372
 IR Inten    --     0.0000

 - Thermochemistry -
 -------------------
 Temperature   298.150 Kelvin.  Pressure   1.00000 Atm.
 Atom     1 has atomic number  1 and mass   1.00783

 Molecular mass:     2.01565 amu.
 Principal axes and moments of inertia in atomic units:
                           1         2         3
     Eigenvalues --    -0.00000   0.94259   0.94259
           X           -0.00000   1.00000  -0.00000
           Y            0.00000   0.00000   1.00000
           Z            1.00000   0.00000  -0.00000
 This molecule is a prolate symmetric top.
 Rotational symmetry number  2.
 Rotational temperature (Kelvin)     91.88895
 Rotational constant (GHZ):        1914.657363
 Zero-point vibrational energy      31373.9 (Joules/Mol)
                                    7.49855 (Kcal/Mol)
 Vibrational temperatures:   7546.83
          (Kelvin)

 Zero-point correction=                           0.011950 (Hartree/Particle)
 Thermal correction to Energy=                    0.014310
 Thermal correction to Enthalpy=                  0.015254
 Thermal correction to Gibbs Free Energy=         0.000511
 Sum of electronic and zero-point Energies=             -1.118187
 Sum of electronic and thermal Energies=                -1.115827
 Sum of electronic and thermal Enthalpies=              -1.114883
 Sum of electronic and thermal Free Energies=           -1.129625

                     E (Thermal)             CV                S
                      KCal/Mol        Cal/Mol-Kelvin    Cal/Mol-Kelvin
 Total                    8.980              4.968             31.029
 Electronic               0.000              0.000              0.000
 Translational            0.889              2.981             28.080
 Rotational               0.592              1.987              2.949
 Vibrational              7.499              0.000              0.000

 Optimization completed.
    -- Stationary point found.
 Normal termination of Gaussian 09 at Sat Aug 17 19:57:37 2024.
