 Gaussian 09, Revision A.02,
 Gaussian 09:  EM64L-G09RevA.02 11-Jun-2009

 -----------------------------------------
 #p b3lyp/6-31+G opt freq pop=full gfinput
 -----------------------------------------

 -------------------------
 NH2 with 6-31+G basis set
 -------------------------
 Symbolic Z-matrix:
 Charge =  0 Multiplicity = 2

 SCF Done:  E(UB3LYP) =  -55.8601196119     A.U. after   11 cycles
 SCF Done:  E(UB3LYP) =  -55.8603463303     A.U. after   10 cycles
 SCF Done:  E(UB3LYP) =  -55.8603610700     A.U. after    8 cycles
 Optimization completed.
    -- Stationary point found.
 Normal termination of Gaussian 09 at Sun Sep 15 16:40:21 2024.

 ------------------------------------------------------------------
 #P Geom=AllCheck Guess=TCheck SCRF=Check GenChk UB3LYP/6-31+G Freq
 ------------------------------------------------------------------

 NH2 with 6-31+G basis set
 -------------------------
 Redundant internal coordinates taken from checkpoint file:
 /home/ospite/Desktop/MMfP/Project9/NH3/reactants/NH2/Gau-31198.chk
 Charge =  0 Multiplicity = 2

                         Standard orientation:
 ---------------------------------------------------------------------
 Center     Atomic      Atomic             Coordinates (Angstroms)
 Number     Number       Type             X           Y           Z
 ---------------------------------------------------------------------
      1          7           0       -0.000000    0.000000    0.137891
      2          1           0       -0.000000    0.833254   -0.482618
      3          1           0       -0.000000   -0.833254   -0.482618
 ---------------------------------------------------------------------

 SCF Done:  E(UB3LYP) =  -55.8603610700     A.U. after    1 cycles

 The electronic state is 2-B1.
 Alpha  occ. eigenvalues --  -14.37948  -0.87656  -0.49477  -0.32465  -0.32138
 Alpha virt. eigenvalues --    0.01155   0.08735   0.10626   0.12044   0.18067
 Alpha virt. eigenvalues --    0.20246   0.82411   0.84759   0.86517   0.97485
 Alpha virt. eigenvalues --    1.03541   1.14455
  Beta  occ. eigenvalues --  -14.35992  -0.82333  -0.48090  -0.29331
  Beta virt. eigenvalues --   -0.12665   0.01878   0.09075   0.12376   0.13088
  Beta virt. eigenvalues --    0.18434   0.21177   0.86211   0.88009   0.90178
  Beta virt. eigenvalues --    0.97356   1.04112   1.17644

 Mulliken atomic charges:
              1
     1  N   -0.599022
     2  H    0.299511
     3  H    0.299511
 Sum of Mulliken atomic charges =  -0.00000

 Dipole moment (field-independent basis, Debye):
    X=             -0.0000    Y=              0.0000    Z=             -2.4616  Tot=              2.4616
 Quadrupole moment (field-independent basis, Debye-Ang):
   XX=             -7.3824   YY=             -5.5647   ZZ=             -8.2856
   XY=              0.0000   XZ=              0.0000   YZ=              0.0000

  Exact polarizability:   7.191  -0.000  10.888  -0.000  -0.000   9.292
 Approx polarizability:   5.545   0.000  12.981   0.000   0.000   9.843

                     1                      2                      3
                    A1                     A1                     B2
 Frequencies --  1501.5064              3261.9923              3389.7557
 Red. masses --     1.0994                 1.0428                 1.0939
 Frc consts  --     1.4603                 6.5373                 7.4054
 IR Inten    --    19.2888                47.5932                 6.1281

 - Thermochemistry -
 -------------------
 Temperature   298.150 Kelvin.  Pressure   1.00000 Atm.
 Atom     1 has atomic number  7 and mass  14.00307

 Molecular mass:    16.01872 amu.
 Principal axes and moments of inertia in atomic units:
                           1         2         3
     Eigenvalues --     2.42273   4.99767   7.42040
           X           -0.00000   0.00000   1.00000
           Y            1.00000   0.00000   0.00000
           Z           -0.00000   1.00000   0.00000
 This molecule is an asymmetric top.
 Rotational symmetry number  2.
 Rotational temperatures (Kelvin)     35.75049    17.33084    11.67239
 Rotational constants (GHZ):         744.92024   361.11659   243.21347
 Zero-point vibrational energy      48767.3 (Joules/Mol)
                                   11.65566 (Kcal/Mol)
 Vibrational temperatures:   2160.33  4693.27  4877.10
          (Kelvin)

 Zero-point correction=                           0.018574 (Hartree/Particle)
 Thermal correction to Energy=                    0.021412
 Thermal correction to Enthalpy=                  0.022356
 Thermal correction to Gibbs Free Energy=         0.000242
 Sum of electronic and zero-point Energies=            -55.841787
 Sum of electronic and thermal Energies=               -55.838949
 Sum of electronic and thermal Enthalpies=             -55.838005
 Sum of electronic and thermal Free Energies=          -55.860119

                     E (Thermal)             CV                S
                      KCal/Mol        Cal/Mol-Kelvin    Cal/Mol-Kelvin
 Total                   13.436              6.036             46.543
 Electronic               0.000              0.000              1.377
 Translational            0.889              2.981             34.259
 Rotational               0.889              2.981             10.895
 Vibrational             11.659              0.075              0.012

 Optimization completed.
    -- Stationary point found.
 Normal termination of Gaussian 09 at Sun Sep 15 16:40:28 2024.
