 Gaussian 09, Revision A.02,
 Gaussian 09:  EM64L-G09RevA.02 11-Jun-2009

 ----------------------------------------------
 #p b3lyp/6-31+g(d,p) opt freq pop=full gfinput
 ----------------------------------------------

 ------------------------------
 NH2 with 6-31+g(d,p) basis set
 ------------------------------
 Symbolic Z-matrix:
 Charge =  0 Multiplicity = 2

 SCF Done:  E(UB3LYP) =  -55.8846012853     A.U. after   12 cycles
 SCF Done:  E(UB3LYP) =  -55.8854240101     A.U. after   10 cycles
 SCF Done:  E(UB3LYP) =  -55.8854468845     A.U. after    8 cycles
 Optimization completed.
    -- Stationary point found.

 1\1\GINC-MOLMOD\FOpt\UB3LYP\6-31+G(d,p)\H2N1(2)\OSPITE\15-Sep-2024\0\\
 #p b3lyp/6-31+g(d,p) opt freq pop=full gfinput\\NH2 with 6-31+g(d,p) b
 asis set\\0,2\N,-0.0241461841,0.,-0.0170739305\H,0.030436742,0.,1.0125
 668425\H,0.9648027549,0.,-0.3088262453\\Version=EM64L-G09RevA.02\State
 =2-B1\HF=-55.8854469\S2=0.752968\S2-1=0.\S2A=0.750005\RMSD=2.156e-09\R
 MSF=1.662e-04\Dipole=0.6881053,0.,0.4865639\Quadrupole=-0.1467589,-0.2
 725777,0.4193367,0.,-0.8005801,0.\PG=C02V [C2(N1),SGV(H2)]\\@

 Normal termination of Gaussian 09 at Sun Sep 15 20:55:24 2024.

 ----------------------------------------------------------------------
 #P Geom=AllCheck Guess=TCheck SCRF=Check GenChk UB3LYP/6-31+G(d,p) Fre
 q
 ----------------------------------------------------------------------

 NH2 with 6-31+g(d,p) basis set
 ------------------------------
 Redundant internal coordinates taken from checkpoint file:
 /home/ospite/Desktop/MMfP/Project9/NH3/reactants/NH2/Gau-2559.chk
 Charge =  0 Multiplicity = 2

                         Standard orientation:
 ---------------------------------------------------------------------
 Center     Atomic      Atomic             Coordinates (Angstroms)
 Number     Number       Type             X           Y           Z
 ---------------------------------------------------------------------
      1          7           0       -0.000000    0.000000    0.142007
      2          1           0       -0.000000    0.809185   -0.497023
      3          1           0       -0.000000   -0.809185   -0.497023
 ---------------------------------------------------------------------

 SCF Done:  E(UB3LYP) =  -55.8854468845     A.U. after    1 cycles

 The electronic state is 2-B1.
 Alpha  occ. eigenvalues --  -14.37933  -0.86488  -0.48207  -0.33506  -0.32411
 Alpha virt. eigenvalues --    0.01620   0.08931   0.10693   0.11612   0.18236
 Alpha virt. eigenvalues --    0.21734   0.82550   0.82715   0.85489   0.89455
 Alpha virt. eigenvalues --    0.99248   1.03721   1.43943   1.45777   1.54113

  Beta  occ. eigenvalues --  -14.36018  -0.81176  -0.46791  -0.31011
  Beta virt. eigenvalues --   -0.12493   0.02317   0.09204   0.11903   0.13221
  Beta virt. eigenvalues --    0.18577   0.22848   0.83783   0.86882   0.89423
  Beta virt. eigenvalues --    0.90559   1.00682   1.06342   1.47443   1.48512

 Mulliken atomic charges:
              1
     1  N   -0.536552
     2  H    0.268276
     3  H    0.268276
 Sum of Mulliken atomic charges =   0.00000

 Dipole moment (field-independent basis, Debye):
    X=             -0.0000    Y=             -0.0000    Z=             -2.1421  Tot=              2.1421
 Quadrupole moment (field-independent basis, Debye-Ang):
   XX=             -7.3352   YY=             -5.6432   ZZ=             -7.9274
   XY=              0.0000   XZ=              0.0000   YZ=              0.0000

  Exact polarizability:   7.110   0.000  10.696   0.000  -0.000   9.620
 Approx polarizability:   6.985   0.000  13.059   0.000   0.000  10.686

                     1                      2                      3
                    A1                     A1                     B2
 Frequencies --  1518.5030              3355.9093              3458.3495
 Red. masses --     1.0917                 1.0498                 1.0902
 Frc consts  --     1.4831                 6.9659                 7.6825
 IR Inten    --    23.3897                16.2446                 2.4019

 - Thermochemistry -
 -------------------
 Temperature   298.150 Kelvin.  Pressure   1.00000 Atm.
 Atom     1 has atomic number  7 and mass  14.00307

 Molecular mass:    16.01872 amu.
 Principal axes and moments of inertia in atomic units:
                           1         2         3
     Eigenvalues --     2.56951   4.71312   7.28263
           X            0.00000   0.00000   1.00000
           Y            1.00000  -0.00000  -0.00000
           Z            0.00000   1.00000  -0.00000
 This molecule is an asymmetric top.
 Rotational symmetry number  2.
 Rotational temperatures (Kelvin)     33.70824    18.37718    11.89320
 Rotational constants (GHZ):         702.36667   382.91883   247.81445
 Zero-point vibrational energy      49841.0 (Joules/Mol)
                                   11.91228 (Kcal/Mol)
 Vibrational temperatures:   2184.78  4828.40  4975.79
          (Kelvin)

 Zero-point correction=                           0.018983 (Hartree/Particle)
 Thermal correction to Energy=                    0.021821
 Thermal correction to Enthalpy=                  0.022765
 Thermal correction to Gibbs Free Energy=         0.000660
 Sum of electronic and zero-point Energies=            -55.866463
 Sum of electronic and thermal Energies=               -55.863626
 Sum of electronic and thermal Enthalpies=             -55.862682
 Sum of electronic and thermal Free Energies=          -55.884787

                     E (Thermal)             CV                S
                      KCal/Mol        Cal/Mol-Kelvin    Cal/Mol-Kelvin
 Total                   13.693              6.032             46.524
 Electronic               0.000              0.000              1.377
 Translational            0.889              2.981             34.259
 Rotational               0.889              2.981             10.876
 Vibrational             11.915              0.070              0.011

 Optimization completed.
    -- Stationary point found.

 1\1\GINC-MOLMOD\Freq\UB3LYP\6-31+G(d,p)\H2N1(2)\OSPITE\15-Sep-2024\0\\
 #P Geom=AllCheck Guess=TCheck SCRF=Check GenChk UB3LYP/6-31+G(d,p) Fre
 q\\NH2 with 6-31+g(d,p) basis set\\0,2\N,-0.0241461841,0.,-0.017073930
 5\H,0.030436742,0.,1.0125668425\H,0.9648027549,0.,-0.3088262453\\Versi
 on=EM64L-G09RevA.02\State=2-B1\HF=-55.8854469\S2=0.752968\S2-1=0.\S2A=
 0.750005\RMSD=1.977e-10\RMSF=1.662e-04\ZeroPoint=0.0189834\Thermal=0.0
 218205\Dipole=0.6881053,0.,0.4865639\DipoleDeriv=-0.1087284,0.,0.05975
 55,0.,-0.6976786,0.,0.0597555,0.,-0.150982,0.2136619,0.,-0.1165113,0.,

 Normal termination of Gaussian 09 at Sun Sep 15 20:55:39 2024.
