 Gaussian 09, Revision A.02,
 Gaussian 09:  EM64L-G09RevA.02 11-Jun-2009

 --------------------------------------------------------------------
 #p b3pw91/cc-pVQZ opt freq symmetry=(follow,pg=C3v) pop=full gfinput
 --------------------------------------------------------------------

 --------------------------------------------------
 methyl with imposed symmetry and cc-pVQZ basis set
 --------------------------------------------------
 Symbolic Z-matrix:
 Charge =  0 Multiplicity = 2

 SCF Done:  E(UB3PW91) =  -39.8445709229     A.U. after   10 cycles
 SCF Done:  E(UB3PW91) =  -39.8448184262     A.U. after    8 cycles
 Optimization completed.
    -- Stationary point found.
 Normal termination of Gaussian 09 at Sun Aug 18 14:37:15 2024.

 --------------------------------------------------------------------
 #P Geom=AllCheck Guess=TCheck SCRF=Check GenChk UB3PW91/CC-pVQZ Freq
 --------------------------------------------------------------------

 methyl with imposed symmetry and cc-pVQZ basis set
 --------------------------------------------------
 Redundant internal coordinates taken from checkpoint file:
 /home/ospite/Desktop/MMfP/Project6/CH3/g09/DFT/B3PW91/Gau-7253.chk
 Charge =  0 Multiplicity = 2

                         Standard orientation:
 ---------------------------------------------------------------------
 Center     Atomic      Atomic             Coordinates (Angstroms)
 Number     Number       Type             X           Y           Z
 ---------------------------------------------------------------------
      1          6           0        0.000000    0.000001    0.000000
      2          1           0       -0.000000   -1.078385   -0.000000
      3          1           0        0.933915    0.539188   -0.000000
      4          1           0       -0.933915    0.539189    0.000000
 ---------------------------------------------------------------------

 SCF Done:  E(UB3PW91) =  -39.8448184262     A.U. after    1 cycles

 The electronic state is 2-A".
 Alpha  occ. eigenvalues --  -10.17262  -0.69315  -0.42529  -0.42529  -0.24100
 Alpha virt. eigenvalues --    0.04551   0.11256   0.11256   0.19574   0.19574
 Alpha virt. eigenvalues --    0.22387   0.26816   0.35470   0.39241   0.39241
 Alpha virt. eigenvalues --    0.40988   0.40989   0.63415   0.63609   0.66227

  Beta  occ. eigenvalues --  -10.15729  -0.65003  -0.41464  -0.41464
  Beta virt. eigenvalues --   -0.06495   0.05375   0.11543   0.11543   0.20202
  Beta virt. eigenvalues --    0.20203   0.28286   0.30959   0.37252   0.39836
  Beta virt. eigenvalues --    0.39836   0.44055   0.44055   0.63234   0.66357

 Mulliken atomic charges:
              1
     1  C   -0.333349
     2  H    0.111186
     3  H    0.111082
     4  H    0.111082
 Sum of Mulliken atomic charges =   0.00000

 Dipole moment (field-independent basis, Debye):
    X=             -0.0000    Y=             -0.0000    Z=             -0.0000  Tot=              0.0000
 Quadrupole moment (field-independent basis, Debye-Ang):
   XX=             -7.1648   YY=             -7.1649   ZZ=             -8.9834
   XY=             -0.0000   XZ=              0.0000   YZ=             -0.0000

  Exact polarizability:  14.752   0.000  14.752   0.000  -0.000  12.608
 Approx polarizability:  17.561  -0.000  17.561  -0.000  -0.000  14.563

 Error termination via Lnk1e in /programs/64bit/g09/g09-gfortran/bin/l701.exe at Sun Aug 18 14:49:06 2024.
