 Gaussian 09, Revision A.02,
 Gaussian 09:  EM64L-G09RevA.02 11-Jun-2009

 --------------------------------------------------------------------
 #p b3pw91/cc-pVDZ opt freq symmetry=(follow,pg=C3v) pop=full gfinput
 --------------------------------------------------------------------

 --------------------------------------------------
 methyl with imposed symmetry and cc-pVDZ basis set
 --------------------------------------------------
 Symbolic Z-matrix:
 Charge =  0 Multiplicity = 2

 SCF Done:  E(UB3PW91) =  -39.8252813462     A.U. after   10 cycles
 Optimization completed.
    -- Stationary point found.
 Normal termination of Gaussian 09 at Sat Aug 17 23:44:48 2024.

 --------------------------------------------------------------------
 #P Geom=AllCheck Guess=TCheck SCRF=Check GenChk UB3PW91/CC-pVDZ Freq
 --------------------------------------------------------------------

 methyl with imposed symmetry and cc-pVDZ basis set
 --------------------------------------------------
 Redundant internal coordinates taken from checkpoint file:
 /home/ospite/Desktop/MMfP/Project6/CH3/g09/DFT/B3PW91/Gau-18131.chk
 Charge =  0 Multiplicity = 2

                         Standard orientation:
 ---------------------------------------------------------------------
 Center     Atomic      Atomic             Coordinates (Angstroms)
 Number     Number       Type             X           Y           Z
 ---------------------------------------------------------------------
      1          6           0        0.000000    0.000000    0.000000
      2          1           0        0.000000    1.090000   -0.000000
      3          1           0        0.943968   -0.545000   -0.000000
      4          1           0       -0.943968   -0.545000   -0.000000
 ---------------------------------------------------------------------

 SCF Done:  E(UB3PW91) =  -39.8252816822     A.U. after    3 cycles

 The electronic state is 2-A2".
 Alpha  occ. eigenvalues --  -10.18554  -0.68609  -0.41721  -0.41721  -0.23466
 Alpha virt. eigenvalues --    0.08315   0.15126   0.15126   0.44072   0.44072
 Alpha virt. eigenvalues --    0.47816   0.49041   0.66262   0.66262   0.85718
 Alpha virt. eigenvalues --    0.95108   0.95108   1.34994   1.44882   1.44882

  Beta  occ. eigenvalues --  -10.17005  -0.64187  -0.40591  -0.40591
  Beta virt. eigenvalues --   -0.05118   0.09637   0.15641   0.15641   0.44792
  Beta virt. eigenvalues --    0.44792   0.52542   0.56908   0.67207   0.67207
  Beta virt. eigenvalues --    0.89483   0.99247   0.99247   1.34610   1.45407

 Mulliken atomic charges:
              1
     1  C   -0.207379
     2  H    0.069126
     3  H    0.069126
     4  H    0.069126
 Sum of Mulliken atomic charges =  -0.00000

 Dipole moment (field-independent basis, Debye):
    X=              0.0000    Y=              0.0000    Z=             -0.0000  Tot=              0.0000
 Quadrupole moment (field-independent basis, Debye-Ang):
   XX=             -7.0443   YY=             -7.0443   ZZ=             -8.6898
   XY=             -0.0000   XZ=              0.0000   YZ=             -0.0000

  Exact polarizability:  12.462  -0.000  12.462   0.000  -0.000   6.839
 Approx polarizability:  14.641  -0.000  14.641  -0.000  -0.000   8.218

                     1                      2                      3
                    A2"                    E'                     E'
 Frequencies --   456.6407              1368.3148              1368.3158
 Red. masses --     1.2356                 1.1019                 1.1019
 Frc consts  --     0.1518                 1.2156                 1.2156
 IR Inten    --    71.7643                 3.8523                 3.8509

                     4                      5                      6
                    A1'                    E'                     E'
 Frequencies --  3118.4687              3318.7227              3318.7228
 Red. masses --     1.0078                 1.1185                 1.1185
 Frc consts  --     5.7745                 7.2582                 7.2582
 IR Inten    --     0.0000                 2.3483                 2.3502

 - Thermochemistry -
 -------------------
 Temperature   298.150 Kelvin.  Pressure   1.00000 Atm.
 Atom     1 has atomic number  6 and mass  12.00000

 Molecular mass:    15.02348 amu.
 Principal axes and moments of inertia in atomic units:
                           1         2         3
     Eigenvalues --     6.41397   6.41397  12.82795
           X           -0.52928   0.84845   0.00000
           Y            0.84845   0.52928   0.00000
           Z            0.00000  -0.00000   1.00000
 This molecule is an oblate symmetric top.
 Rotational symmetry number  6.
 Rotational temperatures (Kelvin)     13.50393    13.50393     6.75196
 Rotational constants (GHZ):         281.37648   281.37648   140.68824
 Zero-point vibrational energy      77453.3 (Joules/Mol)
                                   18.51179 (Kcal/Mol)
 Warning -- explicit consideration of   1 degrees of freedom as
           vibrations may cause significant error
 Vibrational temperatures:    657.00  1968.70  1968.70  4486.78  4774.90
          (Kelvin)           4774.90

 Zero-point correction=                           0.029500 (Hartree/Particle)
 Thermal correction to Energy=                    0.032608
 Thermal correction to Enthalpy=                  0.033552
 Thermal correction to Gibbs Free Energy=         0.011348
 Sum of electronic and zero-point Energies=            -39.795781
 Sum of electronic and thermal Energies=               -39.792674
 Sum of electronic and thermal Enthalpies=             -39.791729
 Sum of electronic and thermal Free Energies=          -39.813934

                     E (Thermal)             CV                S
                      KCal/Mol        Cal/Mol-Kelvin    Cal/Mol-Kelvin
 Total                   20.462              7.544             46.733
 Electronic               0.000              0.000              1.377
 Translational            0.889              2.981             34.068
 Rotational               0.889              2.981             10.471
 Vibrational             18.684              1.582              0.817
 Vibration     1          0.815              1.346              0.776

 Optimization completed.
    -- Stationary point found.
 Normal termination of Gaussian 09 at Sat Aug 17 23:45:04 2024.
