 Gaussian 09, Revision A.02,
 Gaussian 09:  EM64L-G09RevA.02 11-Jun-2009

 --------------------------------------------------------------------
 #p b3pw91/6-31++G opt freq symmetry=(follow,pg=C3v) pop=full gfinput
 --------------------------------------------------------------------

 --------------------------------------------------
 methyl with imposed symmetry and 6-31++G basis set
 --------------------------------------------------
 Symbolic Z-matrix:
 Charge =  0 Multiplicity = 2

 SCF Done:  E(UB3PW91) =  -39.8195102943     A.U. after    8 cycles
 SCF Done:  E(UB3PW91) =  -39.8196019960     A.U. after    7 cycles
 Optimization completed.
    -- Stationary point found.
 Normal termination of Gaussian 09 at Sat Aug 17 23:37:40 2024.

 --------------------------------------------------------------------
 #P Geom=AllCheck Guess=TCheck SCRF=Check GenChk UB3PW91/6-31++G Freq
 --------------------------------------------------------------------

 methyl with imposed symmetry and 6-31++G basis set
 --------------------------------------------------
 Redundant internal coordinates taken from checkpoint file:
 /home/ospite/Desktop/MMfP/Project6/CH3/g09/DFT/B3PW91/Gau-17852.chk
 Charge =  0 Multiplicity = 2

                         Standard orientation:
 ---------------------------------------------------------------------
 Center     Atomic      Atomic             Coordinates (Angstroms)
 Number     Number       Type             X           Y           Z
 ---------------------------------------------------------------------
      1          6           0        0.000000    0.000001    0.000000
      2          1           0       -0.000000   -1.082802    0.000000
      3          1           0        0.937741    0.541397   -0.000000
      4          1           0       -0.937741    0.541397    0.000000
 ---------------------------------------------------------------------

 SCF Done:  E(UB3PW91) =  -39.8196019960     A.U. after    1 cycles

 The electronic state is 2-A".
 Alpha  occ. eigenvalues --  -10.18427  -0.69653  -0.42796  -0.42796  -0.23887
 Alpha virt. eigenvalues --    0.00427   0.04408   0.04408   0.07991   0.11882
 Alpha virt. eigenvalues --    0.11883   0.14491   0.19682   0.22228   0.22228
 Alpha virt. eigenvalues --    0.65228   0.72077   0.72077   1.00665   1.01155

  Beta  occ. eigenvalues --  -10.16909  -0.65160  -0.41655  -0.41655
  Beta virt. eigenvalues --   -0.06696   0.00934   0.04513   0.04513   0.11249
  Beta virt. eigenvalues --    0.12203   0.12204   0.15914   0.22265   0.22846
  Beta virt. eigenvalues --    0.22846   0.73552   0.73615   0.73615   1.01382

 Mulliken atomic charges:
              1
     1  C   -0.520970
     2  H    0.173663
     3  H    0.173653
     4  H    0.173653
 Sum of Mulliken atomic charges =  -0.00000

 Dipole moment (field-independent basis, Debye):
    X=             -0.0000    Y=             -0.0000    Z=              0.0000  Tot=              0.0000
 Quadrupole moment (field-independent basis, Debye-Ang):
   XX=             -7.2117   YY=             -7.2118   ZZ=             -9.2905
   XY=             -0.0000   XZ=             -0.0000   YZ=              0.0000

  Exact polarizability:  12.621  -0.000  12.621   0.000   0.000  10.616
 Approx polarizability:  14.118  -0.000  14.117  -0.000   0.000   9.745

                     1                      2                      3
                    A"                     A'                     A'
 Frequencies --   582.8486              1428.1886              1428.3258
 Red. masses --     1.2356                 1.1032                 1.1032
 Frc consts  --     0.2473                 1.3258                 1.3261
 IR Inten    --   134.0888                 8.0873                 8.0889

                     4                      5                      6
                    A'                     A'                     A'
 Frequencies --  3140.5600              3334.9866              3334.9900
 Red. masses --     1.0078                 1.1172                 1.1171
 Frc consts  --     5.8567                 7.3207                 7.3206
 IR Inten    --     0.0000                 8.6637                 8.6716

 - Thermochemistry -
 -------------------
 Temperature   298.150 Kelvin.  Pressure   1.00000 Atm.
 Atom     1 has atomic number  6 and mass  12.00000

 Molecular mass:    15.02348 amu.
 Principal axes and moments of inertia in atomic units:
                           1         2         3
     Eigenvalues --     6.32951   6.32963  12.65914
           X            1.00000   0.00000   0.00000
           Y           -0.00000   1.00000   0.00000
           Z            0.00000  -0.00000   1.00000
 This molecule is an asymmetric top.
 Rotational symmetry number  1.
 Rotational temperatures (Kelvin)     13.68412    13.68386     6.84200
 Rotational constants (GHZ):         285.13118   285.12577   142.56424
 Zero-point vibrational energy      79252.0 (Joules/Mol)
                                   18.94168 (Kcal/Mol)
 Warning -- explicit consideration of   1 degrees of freedom as
           vibrations may cause significant error
 Vibrational temperatures:    838.59  2054.84  2055.04  4518.56  4798.30
          (Kelvin)           4798.30

 Zero-point correction=                           0.030185 (Hartree/Particle)
 Thermal correction to Energy=                    0.033201
 Thermal correction to Enthalpy=                  0.034145
 Thermal correction to Gibbs Free Energy=         0.010413
 Sum of electronic and zero-point Energies=            -39.789417
 Sum of electronic and thermal Energies=               -39.786401
 Sum of electronic and thermal Enthalpies=             -39.785457
 Sum of electronic and thermal Free Energies=          -39.809189

                     E (Thermal)             CV                S
                      KCal/Mol        Cal/Mol-Kelvin    Cal/Mol-Kelvin
 Total                   20.834              7.222             49.949
 Electronic               0.000              0.000              1.377
 Translational            0.889              2.981             34.068
 Rotational               0.889              2.981             13.992
 Vibrational             19.056              1.261              0.512
 Vibration     1          0.940              1.068              0.480

 Optimization completed.
    -- Stationary point found.
 Normal termination of Gaussian 09 at Sat Aug 17 23:37:53 2024.
