 Gaussian 09, Revision A.02,
 Gaussian 09:  EM64L-G09RevA.02 11-Jun-2009

 -------------------------------------------------------------------
 #p b3pw91/6-31+G opt freq symmetry=(follow,pg=C3v) pop=full gfinput
 -------------------------------------------------------------------

 -------------------------------------------------
 methyl with imposed symmetry and 6-31+G basis set
 -------------------------------------------------
 Symbolic Z-matrix:
 Charge =  0 Multiplicity = 2

 SCF Done:  E(UB3PW91) =  -39.8194341159     A.U. after    8 cycles
 SCF Done:  E(UB3PW91) =  -39.8195280268     A.U. after    7 cycles
 Optimization completed.
    -- Stationary point found.
 Normal termination of Gaussian 09 at Sat Aug 17 23:37:16 2024.

 -------------------------------------------------------------------
 #P Geom=AllCheck Guess=TCheck SCRF=Check GenChk UB3PW91/6-31+G Freq
 -------------------------------------------------------------------

 methyl with imposed symmetry and 6-31+G basis set
 -------------------------------------------------
 Redundant internal coordinates taken from checkpoint file:
 /home/ospite/Desktop/MMfP/Project6/CH3/g09/DFT/B3PW91/Gau-17835.chk
 Charge =  0 Multiplicity = 2

                         Standard orientation:
 ---------------------------------------------------------------------
 Center     Atomic      Atomic             Coordinates (Angstroms)
 Number     Number       Type             X           Y           Z
 ---------------------------------------------------------------------
      1          6           0        0.000000    0.000001   -0.000000
      2          1           0       -0.000000   -1.082714   -0.000000
      3          1           0        0.937664    0.541352    0.000000
      4          1           0       -0.937664    0.541353   -0.000000
 ---------------------------------------------------------------------

 SCF Done:  E(UB3PW91) =  -39.8195280268     A.U. after    1 cycles

 The electronic state is 2-A".
 Alpha  occ. eigenvalues --  -10.18416  -0.69660  -0.42804  -0.42804  -0.23890
 Alpha virt. eigenvalues --    0.02956   0.06845   0.06846   0.07991   0.19433
 Alpha virt. eigenvalues --    0.19886   0.19886   0.65017   0.65017   0.65226
 Alpha virt. eigenvalues --    0.85953   1.01075   1.03354   1.03355
  Beta  occ. eigenvalues --  -10.16897  -0.65165  -0.41663  -0.41662
  Beta virt. eigenvalues --   -0.06708   0.04164   0.07152   0.07152   0.11238
  Beta virt. eigenvalues --    0.20494   0.20494   0.21678   0.66580   0.66580
  Beta virt. eigenvalues --    0.73541   0.89242   1.02655   1.03524   1.03524

 Mulliken atomic charges:
              1
     1  C   -0.562265
     2  H    0.187425
     3  H    0.187420
     4  H    0.187420
 Sum of Mulliken atomic charges =   0.00000

 Dipole moment (field-independent basis, Debye):
    X=             -0.0000    Y=             -0.0000    Z=             -0.0000  Tot=              0.0000
 Quadrupole moment (field-independent basis, Debye-Ang):
   XX=             -7.2077   YY=             -7.2078   ZZ=             -9.2976
   XY=             -0.0000   XZ=              0.0000   YZ=             -0.0000

  Exact polarizability:  12.196   0.000  12.197   0.000   0.000  10.252
 Approx polarizability:  13.691  -0.000  13.690  -0.000  -0.000   9.400

                     1                      2                      3
                    A"                     A'                     A'
 Frequencies --   581.7545              1428.4520              1428.5897
 Red. masses --     1.2356                 1.1032                 1.1032
 Frc consts  --     0.2464                 1.3263                 1.3266
 IR Inten    --   133.7302                 8.1006                 8.1020

                     4                      5                      6
                    A'                     A'                     A'
 Frequencies --  3142.0696              3336.9352              3336.9392
 Red. masses --     1.0078                 1.1172                 1.1172
 Frc consts  --     5.8623                 7.3294                 7.3293
 IR Inten    --     0.0000                 7.0436                 7.0509

 - Thermochemistry -
 -------------------
 Temperature   298.150 Kelvin.  Pressure   1.00000 Atm.
 Atom     1 has atomic number  6 and mass  12.00000

 Molecular mass:    15.02348 amu.
 Principal axes and moments of inertia in atomic units:
                           1         2         3
     Eigenvalues --     6.32848   6.32860  12.65708
           X            1.00000   0.00000   0.00000
           Y           -0.00000   1.00000   0.00000
           Z            0.00000  -0.00000   1.00000
 This molecule is an asymmetric top.
 Rotational symmetry number  1.
 Rotational temperatures (Kelvin)     13.68636    13.68610     6.84311
 Rotational constants (GHZ):         285.17779   285.17237   142.58754
 Zero-point vibrational energy      79281.0 (Joules/Mol)
                                   18.94860 (Kcal/Mol)
 Warning -- explicit consideration of   1 degrees of freedom as
           vibrations may cause significant error
 Vibrational temperatures:    837.01  2055.22  2055.42  4520.73  4801.10
          (Kelvin)           4801.11

 Zero-point correction=                           0.030197 (Hartree/Particle)
 Thermal correction to Energy=                    0.033213
 Thermal correction to Enthalpy=                  0.034157
 Thermal correction to Gibbs Free Energy=         0.010424
 Sum of electronic and zero-point Energies=            -39.789332
 Sum of electronic and thermal Energies=               -39.786315
 Sum of electronic and thermal Enthalpies=             -39.785371
 Sum of electronic and thermal Free Energies=          -39.809104

                     E (Thermal)             CV                S
                      KCal/Mol        Cal/Mol-Kelvin    Cal/Mol-Kelvin
 Total                   20.841              7.225             49.951
 Electronic               0.000              0.000              1.377
 Translational            0.889              2.981             34.068
 Rotational               0.889              2.981             13.991
 Vibrational             19.064              1.263              0.514
 Vibration     1          0.939              1.071              0.482

 Optimization completed.
    -- Stationary point found.
 Normal termination of Gaussian 09 at Sat Aug 17 23:37:27 2024.
