 Gaussian 09, Revision A.02,
 Gaussian 09:  EM64L-G09RevA.02 11-Jun-2009

 --------------------------------------------------------------------
 #p b3pw91/cc-pVTZ opt freq symmetry=(follow,pg=C3v) pop=full gfinput
 --------------------------------------------------------------------

 --------------------------------------------------
 methyl with imposed symmetry and cc-pVTZ basis set
 --------------------------------------------------
 Symbolic Z-matrix:
 Charge =  0 Multiplicity = 2

 SCF Done:  E(UB3PW91) =  -39.8414291016     A.U. after   10 cycles
 SCF Done:  E(UB3PW91) =  -39.8416515778     A.U. after    9 cycles
 Optimization completed.
    -- Stationary point found.
 Normal termination of Gaussian 09 at Sat Aug 17 23:45:53 2024.

 --------------------------------------------------------------------
 #P Geom=AllCheck Guess=TCheck SCRF=Check GenChk UB3PW91/CC-pVTZ Freq
 --------------------------------------------------------------------

 methyl with imposed symmetry and cc-pVTZ basis set
 --------------------------------------------------
 Redundant internal coordinates taken from checkpoint file:
 /home/ospite/Desktop/MMfP/Project6/CH3/g09/DFT/B3PW91/Gau-18153.chk
 Charge =  0 Multiplicity = 2

                         Standard orientation:
 ---------------------------------------------------------------------
 Center     Atomic      Atomic             Coordinates (Angstroms)
 Number     Number       Type             X           Y           Z
 ---------------------------------------------------------------------
      1          6           0        0.000000    0.000001   -0.000000
      2          1           0       -0.000000   -1.078972   -0.000000
      3          1           0        0.934424    0.539483    0.000000
      4          1           0       -0.934423    0.539483   -0.000000
 ---------------------------------------------------------------------

 SCF Done:  E(UB3PW91) =  -39.8416515778     A.U. after    1 cycles

 The electronic state is 2-A".
 Alpha  occ. eigenvalues --  -10.17411  -0.69227  -0.42415  -0.42415  -0.23988
 Alpha virt. eigenvalues --    0.06081   0.12839   0.12839   0.25605   0.25605
 Alpha virt. eigenvalues --    0.30607   0.33110   0.47577   0.48412   0.48412
 Alpha virt. eigenvalues --    0.55123   0.55123   0.83536   0.87583   0.89535

  Beta  occ. eigenvalues --  -10.15895  -0.64891  -0.41338  -0.41338
  Beta virt. eigenvalues --   -0.06180   0.07072   0.13198   0.13198   0.26305
  Beta virt. eigenvalues --    0.26305   0.37066   0.37898   0.49165   0.49165
  Beta virt. eigenvalues --    0.49996   0.58495   0.58495   0.83326   0.90314

 Mulliken atomic charges:
              1
     1  C   -0.341150
     2  H    0.113728
     3  H    0.113711
     4  H    0.113711
 Sum of Mulliken atomic charges =  -0.00000

 Dipole moment (field-independent basis, Debye):
    X=             -0.0000    Y=             -0.0000    Z=             -0.0000  Tot=              0.0000
 Quadrupole moment (field-independent basis, Debye-Ang):
   XX=             -7.1503   YY=             -7.1503   ZZ=             -8.9108
   XY=             -0.0000   XZ=              0.0000   YZ=             -0.0000

  Exact polarizability:  13.967   0.000  13.967  -0.000  -0.000  10.378
 Approx polarizability:  16.661  -0.000  16.661   0.000  -0.000  12.313

                     1                      2                      3
                    A"                     A'                     A'
 Frequencies --   514.7089              1397.4743              1397.6497
 Red. masses --     1.2356                 1.1022                 1.1022
 Frc consts  --     0.1929                 1.2682                 1.2686
 IR Inten    --    76.9549                 3.4290                 3.4299

                     4                      5                      6
                    A'                     A'                     A'
 Frequencies --  3116.5950              3298.6822              3298.6906
 Red. masses --     1.0078                 1.1182                 1.1182
 Frc consts  --     5.7676                 7.1689                 7.1691
 IR Inten    --     0.0000                 4.3779                 4.3720

 - Thermochemistry -
 -------------------
 Temperature   298.150 Kelvin.  Pressure   1.00000 Atm.
 Atom     1 has atomic number  6 and mass  12.00000

 Molecular mass:    15.02348 amu.
 Principal axes and moments of inertia in atomic units:
                           1         2         3
     Eigenvalues --     6.28482   6.28493  12.56975
           X            1.00000   0.00000   0.00000
           Y           -0.00000   1.00000   0.00000
           Z            0.00000  -0.00000   1.00000
 This molecule is an asymmetric top.
 Rotational symmetry number  1.
 Rotational temperatures (Kelvin)     13.78142    13.78120     6.89065
 Rotational constants (GHZ):         287.15856   287.15387   143.57811
 Zero-point vibrational energy      77899.6 (Joules/Mol)
                                   18.61846 (Kcal/Mol)
 Warning -- explicit consideration of   1 degrees of freedom as
           vibrations may cause significant error
 Vibrational temperatures:    740.55  2010.65  2010.90  4484.08  4746.06
          (Kelvin)           4746.07

 Zero-point correction=                           0.029670 (Hartree/Particle)
 Thermal correction to Energy=                    0.032731
 Thermal correction to Enthalpy=                  0.033676
 Thermal correction to Gibbs Free Energy=         0.009884
 Sum of electronic and zero-point Energies=            -39.811981
 Sum of electronic and thermal Energies=               -39.808920
 Sum of electronic and thermal Enthalpies=             -39.807976
 Sum of electronic and thermal Free Energies=          -39.831768

                     E (Thermal)             CV                S
                      KCal/Mol        Cal/Mol-Kelvin    Cal/Mol-Kelvin
 Total                   20.539              7.393             50.075
 Electronic               0.000              0.000              1.377
 Translational            0.889              2.981             34.068
 Rotational               0.889              2.981             13.971
 Vibrational             18.762              1.431              0.659
 Vibration     1          0.870              1.217              0.622

 Optimization completed.
    -- Stationary point found.
 Normal termination of Gaussian 09 at Sat Aug 17 23:48:11 2024.
