 Gaussian 09, Revision A.02,
 Gaussian 09:  EM64L-G09RevA.02 11-Jun-2009

 -------------------------------------------------------------------
 #p b3pw91/STO-3G opt freq symmetry=(follow,pg=C3v) pop=full gfinput
 -------------------------------------------------------------------

 -------------------------------------------------
 methyl with imposed symmetry and STO-3G basis set
 -------------------------------------------------
 Symbolic Z-matrix:
 Charge =  0 Multiplicity = 2

 SCF Done:  E(UB3PW91) =  -39.3341665473     A.U. after   10 cycles
 Optimization completed.
    -- Stationary point found.
 Normal termination of Gaussian 09 at Sat Aug 17 23:38:43 2024.

 -------------------------------------------------------------------
 #P Geom=AllCheck Guess=TCheck SCRF=Check GenChk UB3PW91/STO-3G Freq
 -------------------------------------------------------------------

 methyl with imposed symmetry and STO-3G basis set
 -------------------------------------------------
 Redundant internal coordinates taken from checkpoint file:
 /home/ospite/Desktop/MMfP/Project6/CH3/g09/DFT/B3PW91/Gau-17903.chk
 Charge =  0 Multiplicity = 2

                         Standard orientation:
 ---------------------------------------------------------------------
 Center     Atomic      Atomic             Coordinates (Angstroms)
 Number     Number       Type             X           Y           Z
 ---------------------------------------------------------------------
      1          6           0        0.000000    0.000000    0.000000
      2          1           0        0.000000    1.090000   -0.000000
      3          1           0        0.943968   -0.545000   -0.000000
      4          1           0       -0.943968   -0.545000   -0.000000
 ---------------------------------------------------------------------

 SCF Done:  E(UB3PW91) =  -39.3341666152     A.U. after    2 cycles

 The electronic state is 2-A2".
 Alpha  occ. eigenvalues --   -9.95541  -0.64560  -0.37889  -0.37889  -0.16643
 Alpha virt. eigenvalues --    0.39324   0.49973   0.49973
  Beta  occ. eigenvalues --   -9.93752  -0.59512  -0.36679  -0.36679
  Beta virt. eigenvalues --    0.07361   0.43274   0.51787   0.51787

 Mulliken atomic charges:
              1
     1  C   -0.220860
     2  H    0.073620
     3  H    0.073620
     4  H    0.073620
 Sum of Mulliken atomic charges =  -0.00000

 Dipole moment (field-independent basis, Debye):
    X=             -0.0000    Y=             -0.0000    Z=             -0.0000  Tot=              0.0000
 Quadrupole moment (field-independent basis, Debye-Ang):
   XX=             -6.6593   YY=             -6.6593   ZZ=             -7.5470
   XY=             -0.0000   XZ=              0.0000   YZ=             -0.0000

  Exact polarizability:   5.693   0.000   5.694  -0.000  -0.000   2.028
 Approx polarizability:   6.869  -0.000   6.869  -0.000  -0.000   2.190

 ******    1 imaginary frequencies (negative Signs) ******

                     1                      2                      3
                    A2"                    E'                     E'
 Frequencies --  -221.9807              1543.5513              1543.5520
 Red. masses --     1.2356                 1.0993                 1.0993
 Frc consts  --     0.0359                 1.5431                 1.5431
 IR Inten    --    38.0983                 0.0722                 0.0720

                     4                      5                      6
                    A1'                    E'                     E'
 Frequencies --  3354.5533              3631.2343              3631.2347
 Red. masses --     1.0078                 1.1213                 1.1213
 Frc consts  --     6.6820                 8.7109                 8.7109
 IR Inten    --     0.0000                 0.0145                 0.0144

 - Thermochemistry -
 -------------------
 Temperature   298.150 Kelvin.  Pressure   1.00000 Atm.
 Atom     1 has atomic number  6 and mass  12.00000

 Molecular mass:    15.02348 amu.
 Principal axes and moments of inertia in atomic units:
                           1         2         3
     Eigenvalues --     6.41397   6.41397  12.82795
           X           -0.52928   0.84845   0.00000
           Y            0.84845   0.52928   0.00000
           Z            0.00000  -0.00000   1.00000
 This molecule is an oblate symmetric top.
 Rotational symmetry number  6.
 Rotational temperatures (Kelvin)     13.50393    13.50393     6.75196
 Rotational constants (GHZ):         281.37648   281.37648   140.68824
    1 imaginary frequencies ignored.
 Zero-point vibrational energy      81968.9 (Joules/Mol)
                                   19.59103 (Kcal/Mol)
 Vibrational temperatures:   2220.82  2220.82  4826.45  5224.53  5224.53
          (Kelvin)

 Zero-point correction=                           0.031220 (Hartree/Particle)
 Thermal correction to Energy=                    0.034061
 Thermal correction to Enthalpy=                  0.035005
 Thermal correction to Gibbs Free Energy=         0.013180
 Sum of electronic and zero-point Energies=            -39.302946
 Sum of electronic and thermal Energies=               -39.300106
 Sum of electronic and thermal Enthalpies=             -39.299161
 Sum of electronic and thermal Free Energies=          -39.320987

                     E (Thermal)             CV                S
                      KCal/Mol        Cal/Mol-Kelvin    Cal/Mol-Kelvin
 Total                   21.374              6.090             45.936
 Electronic               0.000              0.000              1.377
 Translational            0.889              2.981             34.068
 Rotational               0.889              2.981             10.471
 Vibrational             19.596              0.129              0.020

 Optimization completed.
    -- Stationary point found.
 Normal termination of Gaussian 09 at Sat Aug 17 23:38:47 2024.
