 Gaussian 09, Revision A.02,
 Gaussian 09:  EM64L-G09RevA.02 11-Jun-2009

 ------------------------------------------------------------------
 #p b3pw91/6-31G opt freq symmetry=(follow,pg=C3v) pop=full gfinput
 ------------------------------------------------------------------

 ------------------------------------------------
 methyl with imposed symmetry and 6-31G basis set
 ------------------------------------------------
 Symbolic Z-matrix:
 Charge =  0 Multiplicity = 2

 SCF Done:  E(UB3PW91) =  -39.8160854945     A.U. after   11 cycles
 SCF Done:  E(UB3PW91) =  -39.8161906139     A.U. after    8 cycles
 Optimization completed.
    -- Stationary point found.
 Normal termination of Gaussian 09 at Sun Aug 18 00:14:43 2024.

 ------------------------------------------------------------------
 #P Geom=AllCheck Guess=TCheck SCRF=Check GenChk UB3PW91/6-31G Freq
 ------------------------------------------------------------------

 methyl with imposed symmetry and 6-31G basis set
 ------------------------------------------------
 Redundant internal coordinates taken from checkpoint file:
 /home/ospite/Desktop/MMfP/Project6/CH3/g09/DFT/B3PW91/Gau-18541.chk
 Charge =  0 Multiplicity = 2

                         Standard orientation:
 ---------------------------------------------------------------------
 Center     Atomic      Atomic             Coordinates (Angstroms)
 Number     Number       Type             X           Y           Z
 ---------------------------------------------------------------------
      1          6           0        0.000000    0.000001    0.000000
      2          1           0       -0.000000   -1.082287   -0.000000
      3          1           0        0.937295    0.541139   -0.000000
      4          1           0       -0.937295    0.541139    0.000000
 ---------------------------------------------------------------------

 SCF Done:  E(UB3PW91) =  -39.8161906139     A.U. after    1 cycles

 The electronic state is 2-A".
 Alpha  occ. eigenvalues --  -10.17377  -0.68870  -0.42016  -0.42016  -0.23005
 Alpha virt. eigenvalues --    0.12178   0.18725   0.18725   0.54070   0.56241
 Alpha virt. eigenvalues --    0.56241   0.72515   0.96776   0.96776   0.97362
  Beta  occ. eigenvalues --  -10.15825  -0.64243  -0.40842  -0.40841
  Beta virt. eigenvalues --   -0.04455   0.13881   0.19366   0.19366   0.57639
  Beta virt. eigenvalues --    0.57639   0.63196   0.75160   0.97172   0.97172
  Beta virt. eigenvalues --    1.00415

 Mulliken atomic charges:
              1
     1  C   -0.482732
     2  H    0.160912
     3  H    0.160910
     4  H    0.160910
 Sum of Mulliken atomic charges =  -0.00000

 Dipole moment (field-independent basis, Debye):
    X=             -0.0000    Y=             -0.0000    Z=             -0.0000  Tot=              0.0000
 Quadrupole moment (field-independent basis, Debye-Ang):
   XX=             -6.9795   YY=             -6.9796   ZZ=             -8.6842
   XY=             -0.0000   XZ=             -0.0000   YZ=             -0.0000

  Exact polarizability:  11.666   0.000  11.666   0.000   0.000   4.528
 Approx polarizability:  13.115  -0.000  13.115   0.000  -0.000   4.542

                     1                      2                      3
                    A"                     A'                     A'
 Frequencies --   537.6427              1434.9970              1435.1512
 Red. masses --     1.2356                 1.1034                 1.1034
 Frc consts  --     0.2104                 1.3387                 1.3390
 IR Inten    --   112.9213                 5.6796                 5.6806

                     4                      5                      6
                    A'                     A'                     A'
 Frequencies --  3146.3624              3341.4851              3341.4896
 Red. masses --     1.0078                 1.1170                 1.1170
 Frc consts  --     5.8783                 7.3483                 7.3484
 IR Inten    --     0.0000                 9.8203                 9.8112

 - Thermochemistry -
 -------------------
 Temperature   298.150 Kelvin.  Pressure   1.00000 Atm.
 Atom     1 has atomic number  6 and mass  12.00000

 Molecular mass:    15.02348 amu.
 Principal axes and moments of inertia in atomic units:
                           1         2         3
     Eigenvalues --     6.32349   6.32361  12.64710
           X            1.00000   0.00000   0.00000
           Y           -0.00000   1.00000   0.00000
           Z            0.00000  -0.00000   1.00000
 This molecule is an asymmetric top.
 Rotational symmetry number  1.
 Rotational temperatures (Kelvin)     13.69716    13.69688     6.84851
 Rotational constants (GHZ):         285.40279   285.39708   142.69997
 Zero-point vibrational energy      79175.6 (Joules/Mol)
                                   18.92342 (Kcal/Mol)
 Warning -- explicit consideration of   1 degrees of freedom as
           vibrations may cause significant error
 Vibrational temperatures:    773.55  2064.64  2064.86  4526.91  4807.65
          (Kelvin)           4807.65

 Zero-point correction=                           0.030156 (Hartree/Particle)
 Thermal correction to Energy=                    0.033200
 Thermal correction to Enthalpy=                  0.034144
 Thermal correction to Gibbs Free Energy=         0.010370
 Sum of electronic and zero-point Energies=            -39.786034
 Sum of electronic and thermal Energies=               -39.782991
 Sum of electronic and thermal Enthalpies=             -39.782047
 Sum of electronic and thermal Free Energies=          -39.805820

                     E (Thermal)             CV                S
                      KCal/Mol        Cal/Mol-Kelvin    Cal/Mol-Kelvin
 Total                   20.833              7.316             50.036
 Electronic               0.000              0.000              1.377
 Translational            0.889              2.981             34.068
 Rotational               0.889              2.981             13.989
 Vibrational             19.056              1.355              0.601
 Vibration     1          0.893              1.167              0.570

 Optimization completed.
    -- Stationary point found.
 Normal termination of Gaussian 09 at Sun Aug 18 00:14:51 2024.
