 Gaussian 09, Revision A.02,
 Gaussian 09:  EM64L-G09RevA.02 11-Jun-2009

 ----------------------------------------------------------------------
 #p b3pw91/aug-cc-pVDZ opt freq symmetry=(follow,pg=C3v) pop=full gfinp
 ut
 ----------------------------------------------------------------------

 ------------------------------------------------------
 methyl with imposed symmetry and aug-cc-pVDZ basis set
 ------------------------------------------------------
 Symbolic Z-matrix:
 Charge =  0 Multiplicity = 2

 SCF Done:  E(UB3PW91) =  -39.8290532576     A.U. after    8 cycles
 SCF Done:  E(UB3PW91) =  -39.8290624409     A.U. after    7 cycles
 Optimization completed.
    -- Stationary point found.
 Normal termination of Gaussian 09 at Sat Aug 17 23:41:29 2024.

 ----------------------------------------------------------------------
 #P Geom=AllCheck Guess=TCheck SCRF=Check GenChk UB3PW91/Aug-CC-pVDZ Fr
 eq
 ----------------------------------------------------------------------

 methyl with imposed symmetry and aug-cc-pVDZ basis set
 ------------------------------------------------------
 Redundant internal coordinates taken from checkpoint file:
 /home/ospite/Desktop/MMfP/Project6/CH3/g09/DFT/B3PW91/Gau-18030.chk
 Charge =  0 Multiplicity = 2

                         Standard orientation:
 ---------------------------------------------------------------------
 Center     Atomic      Atomic             Coordinates (Angstroms)
 Number     Number       Type             X           Y           Z
 ---------------------------------------------------------------------
      1          6           0        0.000000    0.000000   -0.000000
      2          1           0       -0.000006    1.087719   -0.000000
      3          1           0       -0.941992   -0.543865    0.000000
      4          1           0        0.941998   -0.543854    0.000000
 ---------------------------------------------------------------------

 SCF Done:  E(UB3PW91) =  -39.8290624409     A.U. after    1 cycles

 The electronic state is 2-A".
 Alpha  occ. eigenvalues --  -10.18945  -0.69241  -0.42349  -0.42349  -0.24071
 Alpha virt. eigenvalues --    0.00057   0.03434   0.03434   0.06915   0.10707
 Alpha virt. eigenvalues --    0.10708   0.11630   0.17300   0.17352   0.17352
 Alpha virt. eigenvalues --    0.25609   0.25610   0.34990   0.34992   0.37776

  Beta  occ. eigenvalues --  -10.17422  -0.64897  -0.41241  -0.41241
  Beta virt. eigenvalues --   -0.06869   0.00563   0.03503   0.03504   0.09689
  Beta virt. eigenvalues --    0.10936   0.10936   0.12556   0.17715   0.17716
  Beta virt. eigenvalues --    0.20082   0.27262   0.27263   0.35269   0.35271

 Mulliken atomic charges:
              1
     1  C    0.434030
     2  H   -0.144671
     3  H   -0.144679
     4  H   -0.144679
 Sum of Mulliken atomic charges =  -0.00000

 Dipole moment (field-independent basis, Debye):
    X=             -0.0000    Y=             -0.0000    Z=              0.0000  Tot=              0.0000
 Quadrupole moment (field-independent basis, Debye-Ang):
   XX=             -7.2387   YY=             -7.2387   ZZ=             -9.1320
   XY=              0.0000   XZ=             -0.0000   YZ=             -0.0000

  Exact polarizability:  15.935   0.001  15.930   0.000  -0.000  15.873
 Approx polarizability:  18.889  -0.000  18.889   0.000   0.000  17.440

                     1                      2                      3
                    A"                     A'                     A'
 Frequencies --   543.6185              1377.1087              1377.2081
 Red. masses --     1.2356                 1.1021                 1.1021
 Frc consts  --     0.2151                 1.2314                 1.2316
 IR Inten    --    77.9309                 2.9529                 2.9617

                     4                      5                      6
                    A'                     A'                     A'
 Frequencies --  3112.4873              3308.6850              3308.7150
 Red. masses --     1.0078                 1.1184                 1.1183
 Frc consts  --     5.7524                 7.2134                 7.2135
 IR Inten    --     0.0000                 4.3339                 4.3443

 - Thermochemistry -
 -------------------
 Temperature   298.150 Kelvin.  Pressure   1.00000 Atm.
 Atom     1 has atomic number  6 and mass  12.00000

 Molecular mass:    15.02348 amu.
 Principal axes and moments of inertia in atomic units:
                           1         2         3
     Eigenvalues --     6.38716   6.38720  12.77436
           X            1.00000  -0.00001   0.00000
           Y            0.00001   1.00000   0.00000
           Z            0.00000  -0.00000   1.00000
 This molecule is an asymmetric top.
 Rotational symmetry number  1.
 Rotational temperatures (Kelvin)     13.56062    13.56054     6.78029
 Rotational constants (GHZ):         282.55776   282.55605   141.27845
 Zero-point vibrational energy      77923.7 (Joules/Mol)
                                   18.62421 (Kcal/Mol)
 Warning -- explicit consideration of   1 degrees of freedom as
           vibrations may cause significant error
 Vibrational temperatures:    782.14  1981.35  1981.49  4478.17  4760.45
          (Kelvin)           4760.50

 Zero-point correction=                           0.029680 (Hartree/Particle)
 Thermal correction to Energy=                    0.032722
 Thermal correction to Enthalpy=                  0.033666
 Thermal correction to Gibbs Free Energy=         0.009881
 Sum of electronic and zero-point Energies=            -39.799383
 Sum of electronic and thermal Energies=               -39.796340
 Sum of electronic and thermal Enthalpies=             -39.795396
 Sum of electronic and thermal Free Energies=          -39.819182

                     E (Thermal)             CV                S
                      KCal/Mol        Cal/Mol-Kelvin    Cal/Mol-Kelvin
 Total                   20.534              7.344             50.061
 Electronic               0.000              0.000              1.377
 Translational            0.889              2.981             34.068
 Rotational               0.889              2.981             14.019
 Vibrational             18.756              1.383              0.597
 Vibration     1          0.899              1.154              0.558

 Optimization completed.
    -- Stationary point found.
 Normal termination of Gaussian 09 at Sat Aug 17 23:42:46 2024.
