 Gaussian 09, Revision A.02,
 Gaussian 09:  EM64L-G09RevA.02 11-Jun-2009

 ----------------------------------------------
 #p B3LYP/6-31+g(d,p) opt freq pop=full gfinput
 ----------------------------------------------

 -------
 methane
 -------
 Symbolic Z-matrix:
 Charge =  0 Multiplicity = 1

 SCF Done:  E(RB3LYP) =  -40.5221035887     A.U. after    8 cycles
 SCF Done:  E(RB3LYP) =  -40.5261186243     A.U. after    9 cycles
 SCF Done:  E(RB3LYP) =  -40.5261370089     A.U. after   10 cycles
 Optimization completed.
    -- Stationary point found.
 Normal termination of Gaussian 09 at Wed Aug 14 16:43:16 2024.

 ----------------------------------------------------------------------
 #P Geom=AllCheck Guess=TCheck SCRF=Check GenChk RB3LYP/6-31+G(d,p) Fre
 q
 ----------------------------------------------------------------------

 methane
 -------
 Redundant internal coordinates taken from checkpoint file:
 tmp.chk
 Charge =  0 Multiplicity = 1

                         Standard orientation:
 ---------------------------------------------------------------------
 Center     Atomic      Atomic             Coordinates (Angstroms)
 Number     Number       Type             X           Y           Z
 ---------------------------------------------------------------------
      1          6           0        0.000220    0.000599   -0.000107
      2          1           0       -0.076122   -0.728418   -0.810945
      3          1           0        0.976945    0.488421   -0.039070
      4          1           0       -0.788884    0.748694   -0.107729
      5          1           0       -0.113261   -0.512288    0.958383
 ---------------------------------------------------------------------

 SCF Done:  E(RB3LYP) =  -40.5261370089     A.U. after    1 cycles

 The electronic state is 1-A.
 Alpha  occ. eigenvalues --  -10.17259  -0.69592  -0.39417  -0.39378  -0.39346
 Alpha virt. eigenvalues --    0.01597   0.06108   0.06112   0.06116   0.18091
 Alpha virt. eigenvalues --    0.18115   0.18144   0.27737   0.63800   0.63811
 Alpha virt. eigenvalues --    0.63821   0.90949   0.90997   0.91056   1.05084

 Mulliken atomic charges:
              1
     1  C   -0.610281
     2  H    0.152488
     3  H    0.152683
     4  H    0.152624
     5  H    0.152485
 Sum of Mulliken atomic charges =  -0.00000

 Dipole moment (field-independent basis, Debye):
    X=             -0.0006    Y=             -0.0018    Z=              0.0004  Tot=              0.0019
 Quadrupole moment (field-independent basis, Debye-Ang):
   XX=             -8.5057   YY=             -8.5130   ZZ=             -8.5194
   XY=              0.0002   XZ=              0.0001   YZ=             -0.0002

  Exact polarizability:  13.710  -0.001  13.709  -0.000   0.001  13.708
 Approx polarizability:  16.353  -0.001  16.349  -0.001   0.001  16.345

                     1                      2                      3
                     A                      A                      A
 Frequencies --  1345.9490              1347.3262              1349.0520
 Red. masses --     1.1796                 1.1793                 1.1790
 Frc consts  --     1.2590                 1.2613                 1.2642
 IR Inten    --    19.5234                19.3528                19.1766

                     4                      5                      6
                     A                      A                      A
 Frequencies --  1563.7400              1563.7485              3036.9263
 Red. masses --     1.0078                 1.0078                 1.0079
 Frc consts  --     1.4520                 1.4520                 5.4767
 IR Inten    --     0.0003                 0.0000                 0.0106

                     7                      8                      9
                     A                      A                      A
 Frequencies --  3146.9944              3149.5169              3152.8615
 Red. masses --     1.1011                 1.1013                 1.1016
 Frc consts  --     6.4252                 6.4367                 6.4519
 IR Inten    --    25.8203                25.5338                25.2093

 - Thermochemistry -
 -------------------
 Temperature   298.150 Kelvin.  Pressure   1.00000 Atm.
 Atom     1 has atomic number  6 and mass  12.00000

 Molecular mass:    16.03130 amu.
 Principal axes and moments of inertia in atomic units:
                           1         2         3
     Eigenvalues --    11.44987  11.46156  11.47189
           X            1.00000  -0.00015   0.00001
           Y            0.00015   1.00000   0.00008
           Z           -0.00001  -0.00008   1.00000
 This molecule is an asymmetric top.
 Rotational symmetry number  1.
 Rotational temperatures (Kelvin)      7.56461     7.55689     7.55009
 Rotational constants (GHZ):         157.62109   157.46033   157.31856
 Zero-point vibrational energy     117569.7 (Joules/Mol)
                                   28.09983 (Kcal/Mol)
 Vibrational temperatures:   1936.52  1938.50  1940.98  2249.87  2249.88
          (Kelvin)           4369.45  4527.82  4531.45  4536.26

 Zero-point correction=                           0.044780 (Hartree/Particle)
 Thermal correction to Energy=                    0.047648
 Thermal correction to Enthalpy=                  0.048592
 Thermal correction to Gibbs Free Energy=         0.025111
 Sum of electronic and zero-point Energies=            -40.481357
 Sum of electronic and thermal Energies=               -40.478489
 Sum of electronic and thermal Enthalpies=             -40.477545
 Sum of electronic and thermal Free Energies=          -40.501026

                     E (Thermal)             CV                S
                      KCal/Mol        Cal/Mol-Kelvin    Cal/Mol-Kelvin
 Total                   29.899              6.461             49.419
 Electronic               0.000              0.000              0.000
 Translational            0.889              2.981             34.261
 Rotational               0.889              2.981             15.073
 Vibrational             28.122              0.499              0.085

 Normal termination of Gaussian 09 at Wed Aug 14 16:44:00 2024.
