 Gaussian 09, Revision A.02,
 Gaussian 09:  EM64L-G09RevA.02 11-Jun-2009

 ----------------------------------------------
 #p B3LYP/6-31+g(d,p) opt freq pop=full gfinput
 ----------------------------------------------

 -------
 methane
 -------
 Symbolic Z-matrix:
 Charge =  0 Multiplicity = 1

 SCF Done:  E(RB3LYP) =  -40.5261194242     A.U. after    7 cycles
 SCF Done:  E(RB3LYP) =  -40.5261383140     A.U. after    6 cycles
 Optimization completed.
    -- Stationary point found.
 Normal termination of Gaussian 09 at Wed Aug 14 23:13:28 2024.

 ----------------------------------------------------------------------
 #P Geom=AllCheck Guess=TCheck SCRF=Check GenChk RB3LYP/6-31+G(d,p) Fre
 q
 ----------------------------------------------------------------------

 methane
 -------
 Redundant internal coordinates taken from checkpoint file:
 tmp.chk
 Charge =  0 Multiplicity = 1

                         Standard orientation:
 ---------------------------------------------------------------------
 Center     Atomic      Atomic             Coordinates (Angstroms)
 Number     Number       Type             X           Y           Z
 ---------------------------------------------------------------------
      1          6           0        0.000000    0.000000    0.000047
      2          1           0        0.000000    0.000000    1.092785
      3          1           0        0.000000    1.030247   -0.364356
      4          1           0        0.892220   -0.515123   -0.364356
      5          1           0       -0.892220   -0.515123   -0.364356
 ---------------------------------------------------------------------

 SCF Done:  E(RB3LYP) =  -40.5261383140     A.U. after    1 cycles

 The electronic state is 1-A1.
 Alpha  occ. eigenvalues --  -10.17259  -0.69592  -0.39383  -0.39379  -0.39379
 Alpha virt. eigenvalues --    0.01598   0.06112   0.06112   0.06112   0.18116
 Alpha virt. eigenvalues --    0.18116   0.18120   0.27737   0.63809   0.63811
 Alpha virt. eigenvalues --    0.63811   0.90999   0.90999   0.91006   1.05085

 Mulliken atomic charges:
              1
     1  C   -0.610265
     2  H    0.152579
     3  H    0.152562
     4  H    0.152562
     5  H    0.152562
 Sum of Mulliken atomic charges =  -0.00000

 Dipole moment (field-independent basis, Debye):
    X=             -0.0000    Y=             -0.0000    Z=             -0.0001  Tot=              0.0001
 Quadrupole moment (field-independent basis, Debye-Ang):
   XX=             -8.5129   YY=             -8.5129   ZZ=             -8.5121
   XY=             -0.0000   XZ=              0.0000   YZ=             -0.0000

  Exact polarizability:  13.708  -0.000  13.708  -0.000   0.000  13.708
 Approx polarizability:  16.348  -0.000  16.348   0.000  -0.000  16.348

                     1                      2                      3
                     E                      E                     A1
 Frequencies --  1347.3658              1347.3670              1347.6918
 Red. masses --     1.1793                 1.1793                 1.1793
 Frc consts  --     1.2614                 1.2614                 1.2620
 IR Inten    --    19.3538                19.3530                19.3313

                     4                      5                      6
                     E                      E                     A1
 Frequencies --  1563.7654              1563.7667              3037.1589
 Red. masses --     1.0078                 1.0078                 1.0078
 Frc consts  --     1.4520                 1.4520                 5.4773
 IR Inten    --     0.0000                 0.0000                 0.0001

                     7                      8                      9
                     E                      E                     A1
 Frequencies --  3149.8386              3149.8388              3150.2815
 Red. masses --     1.1014                 1.1014                 1.1014
 Frc consts  --     6.4381                 6.4381                 6.4401
 IR Inten    --    25.5321                25.5359                25.4931

 - Thermochemistry -
 -------------------
 Temperature   298.150 Kelvin.  Pressure   1.00000 Atm.
 Atom     1 has atomic number  6 and mass  12.00000

 Molecular mass:    16.03130 amu.
 Principal axes and moments of inertia in atomic units:
                           1         2         3
     Eigenvalues --    11.46005  11.46124  11.46124
           X            0.00000  -0.13952   0.99022
           Y            0.00000   0.99022   0.13952
           Z            1.00000  -0.00000  -0.00000
 This molecule is a prolate symmetric top.
 Rotational symmetry number  3.
 Rotational temperatures (Kelvin)      7.55789     7.55710     7.55710
 Rotational constants (GHZ):         157.48105   157.46467   157.46467
 Zero-point vibrational energy     117575.4 (Joules/Mol)
                                   28.10120 (Kcal/Mol)
 Vibrational temperatures:   1938.56  1938.56  1939.03  2249.91  2249.91
          (Kelvin)           4369.79  4531.91  4531.91  4532.55

 Zero-point correction=                           0.044782 (Hartree/Particle)
 Thermal correction to Energy=                    0.047650
 Thermal correction to Enthalpy=                  0.048594
 Thermal correction to Gibbs Free Energy=         0.026151
 Sum of electronic and zero-point Energies=            -40.481356
 Sum of electronic and thermal Energies=               -40.478488
 Sum of electronic and thermal Enthalpies=             -40.477544
 Sum of electronic and thermal Free Energies=          -40.499988

                     E (Thermal)             CV                S
                      KCal/Mol        Cal/Mol-Kelvin    Cal/Mol-Kelvin
 Total                   29.901              6.461             47.236
 Electronic               0.000              0.000              0.000
 Translational            0.889              2.981             34.261
 Rotational               0.889              2.981             12.890
 Vibrational             28.123              0.499              0.085

 Optimization completed.
    -- Stationary point found.
 Normal termination of Gaussian 09 at Wed Aug 14 23:13:51 2024.
