 Gaussian 09, Revision A.02,
 Gaussian 09:  EM64L-G09RevA.02 11-Jun-2009

 ----------------------------------------------
 #p B3LYP/6-31+g(d,p) opt freq pop=full gfinput
 ----------------------------------------------

 ---------------
 carbon_monoxide
 ---------------
 Symbolic Z-matrix:
 Charge =  0 Multiplicity = 1

 SCF Done:  E(RB3LYP) =  -113.317126082     A.U. after    8 cycles
 SCF Done:  E(RB3LYP) =  -113.317319316     A.U. after    7 cycles
 SCF Done:  E(RB3LYP) =  -113.317323135     A.U. after    7 cycles
 Optimization completed.
    -- Stationary point found.
 Normal termination of Gaussian 09 at Tue Aug 13 22:04:19 2024.

 ----------------------------------------------------------------------
 #P Geom=AllCheck Guess=TCheck SCRF=Check GenChk RB3LYP/6-31+G(d,p) Fre
 q
 ----------------------------------------------------------------------

 carbon_monoxide
 ---------------
 Redundant internal coordinates taken from checkpoint file:
 /home/ospite/Desktop/MMfP/Project3/CO/Gau-4958.chk
 Charge =  0 Multiplicity = 1

                         Standard orientation:
 ---------------------------------------------------------------------
 Center     Atomic      Atomic             Coordinates (Angstroms)
 Number     Number       Type             X           Y           Z
 ---------------------------------------------------------------------
      1          6           0        0.000000    0.000000   -0.649865
      2          8           0        0.000000    0.000000    0.487399
 ---------------------------------------------------------------------

 SCF Done:  E(RB3LYP) =  -113.317323135     A.U. after    1 cycles

 The electronic state is 1-SG.
 Alpha  occ. eigenvalues --  -19.27477 -10.32136  -1.17420  -0.58450  -0.48231
 Alpha  occ. eigenvalues --   -0.48231  -0.38725
 Alpha virt. eigenvalues --   -0.04397  -0.04397   0.02833   0.05917   0.07163
 Alpha virt. eigenvalues --    0.07163   0.17926   0.20862   0.20862   0.26074
 Alpha virt. eigenvalues --    0.42243   0.63288   0.63288   0.73514   1.03343

 Mulliken atomic charges:
              1
     1  C    0.149852
     2  O   -0.149852
 Sum of Mulliken atomic charges =  -0.00000

 Dipole moment (field-independent basis, Debye):
    X=              0.0000    Y=              0.0000    Z=              0.0277  Tot=              0.0277
 Quadrupole moment (field-independent basis, Debye-Ang):
   XX=            -10.3200   YY=            -10.3200   ZZ=            -12.4859
   XY=              0.0000   XZ=              0.0000   YZ=              0.0000

  Exact polarizability:  10.052  -0.000  10.052   0.000  -0.000  15.671
 Approx polarizability:  12.953  -0.000  12.953  -0.000  -0.000  25.478

                     1
                    SG
 Frequencies --  2202.3117
 Red. masses --    13.4388
 Frc consts  --    38.4031
 IR Inten    --    86.4506

 - Thermochemistry -
 -------------------
 Temperature   298.150 Kelvin.  Pressure   1.00000 Atm.
 Atom     1 has atomic number  6 and mass  12.00000

 Molecular mass:    27.99491 amu.
 Principal axes and moments of inertia in atomic units:
                           1         2         3
     Eigenvalues --     0.00000  31.66677  31.66677
           X            0.00000  -0.00000   1.00000
           Y            0.00000   1.00000   0.00000
           Z            1.00000   0.00000   0.00000
 This molecule is a prolate symmetric top.
 Rotational symmetry number  1.
 Rotational temperature (Kelvin)      2.73516
 Rotational constant (GHZ):          56.991635
 Zero-point vibrational energy      13172.7 (Joules/Mol)
                                    3.14836 (Kcal/Mol)
 Vibrational temperatures:   3168.63
          (Kelvin)

 Zero-point correction=                           0.005017 (Hartree/Particle)
 Thermal correction to Energy=                    0.007378
 Thermal correction to Enthalpy=                  0.008322
 Thermal correction to Gibbs Free Energy=        -0.014120
 Sum of electronic and zero-point Energies=           -113.312306
 Sum of electronic and thermal Energies=              -113.309945
 Sum of electronic and thermal Enthalpies=            -113.309001
 Sum of electronic and thermal Free Energies=         -113.331443

                     E (Thermal)             CV                S
                      KCal/Mol        Cal/Mol-Kelvin    Cal/Mol-Kelvin
 Total                    4.630              4.973             47.234
 Electronic               0.000              0.000              0.000
 Translational            0.889              2.981             35.923
 Rotational               0.592              1.987             11.310
 Vibrational              3.149              0.005              0.001

 Optimization completed.
    -- Stationary point found.
 Normal termination of Gaussian 09 at Tue Aug 13 22:04:27 2024.
