 Gaussian 09, Revision D.01,
 Gaussian 09:  EM64L-G09RevD.01 24-Apr-2013

 ------------------------
 #p B3LYP/6-31+g(d,p) opt
 ------------------------

 -----------
 ch3cooh gas
 -----------
 Symbolic Z-matrix:
 Charge =  0 Multiplicity = 1

 SCF Done:  E(RB3LYP) =  -229.098581197     A.U. after   11 cycles
 SCF Done:  E(RB3LYP) =  -229.105066905     A.U. after   10 cycles
 SCF Done:  E(RB3LYP) =  -229.105295934     A.U. after    9 cycles
 SCF Done:  E(RB3LYP) =  -229.105304954     A.U. after    8 cycles
 Optimization completed.
    -- Stationary point found.

                         Standard orientation:
 ---------------------------------------------------------------------
 Center     Atomic      Atomic             Coordinates (Angstroms)
 Number     Number       Type             X           Y           Z
 ---------------------------------------------------------------------
      1          6           0       -0.000000    0.146356   -0.000000
      2          8           0        1.272757   -0.325994   -0.000000
      3          8           0       -0.250507    1.333482   -0.000000
      4          1           0        1.862660    0.448043   -0.000000
      5          6           0       -1.025329   -0.958263    0.000000
      6          1           0       -0.563029   -1.945581    0.000000
      7          1           0       -1.662825   -0.845463    0.881620
      8          1           0       -1.662825   -0.845463   -0.881620
 ---------------------------------------------------------------------

 The electronic state is 1-A'.
 Alpha  occ. eigenvalues --  -19.21684 -19.15742 -10.33929 -10.21065  -1.12154
 Alpha  occ. eigenvalues --   -1.03076  -0.76940  -0.62628  -0.50287  -0.48973
 Alpha  occ. eigenvalues --   -0.47966  -0.42106  -0.40746  -0.40517  -0.33460
 Alpha  occ. eigenvalues --   -0.29237
 Alpha virt. eigenvalues --   -0.01006  -0.00532   0.02190   0.05235   0.05306
 Alpha virt. eigenvalues --    0.06239   0.07715   0.08504   0.12047   0.15433
 Alpha virt. eigenvalues --    0.16306   0.17088   0.18757   0.22536   0.22921

 Mulliken charges:
               1
     1  C    0.412754
     2  O   -0.434785
     3  O   -0.454011
     4  H    0.361694
     5  C   -0.435860
     6  H    0.174928
     7  H    0.187641
     8  H    0.187641
 Sum of Mulliken charges =  -0.00000

 Dipole moment (field-independent basis, Debye):
    X=              0.3103    Y=             -1.6926    Z=              0.0000  Tot=              1.7208
 Quadrupole moment (field-independent basis, Debye-Ang):
   XX=            -20.5654   YY=            -27.7222   ZZ=            -23.4418
   XY=              4.3759   XZ=             -0.0000   YZ=              0.0000

 Normal termination of Gaussian 09 at Tue Sep 17 13:13:52 2024.
