 Gaussian 09, Revision D.01,
 Gaussian 09:  EM64L-G09RevD.01 24-Apr-2013

 -----------------------------
 #p B3LYP/6-31+g(d,p) opt freq
 -----------------------------

 -----------
 ch3cooh gas
 -----------
 Symbolic Z-matrix:
 Charge =  0 Multiplicity = 1

 SCF Done:  E(RB3LYP) =  -229.098581197     A.U. after   11 cycles
 SCF Done:  E(RB3LYP) =  -229.105066905     A.U. after   10 cycles
 SCF Done:  E(RB3LYP) =  -229.105295934     A.U. after    9 cycles
 SCF Done:  E(RB3LYP) =  -229.105304954     A.U. after    8 cycles
 Optimization completed.
    -- Stationary point found.
 Normal termination of Gaussian 09 at Tue Sep 17 19:28:16 2024.

 ----------------------------------------------------------------------
 #P Geom=AllCheck Guess=TCheck SCRF=Check GenChk RB3LYP/6-31+G(d,p) Fre
 q
 ----------------------------------------------------------------------

 Structure from the checkpoint file:  "/g100_scratch/userexternal/ecabiati/g16_14420037/Gau-43962.chk"
 -----------
 ch3cooh gas
 -----------
 Charge =  0 Multiplicity = 1

                         Standard orientation:
 ---------------------------------------------------------------------
 Center     Atomic      Atomic             Coordinates (Angstroms)
 Number     Number       Type             X           Y           Z
 ---------------------------------------------------------------------
      1          6           0        0.000000    0.146356    0.000000
      2          8           0        1.272757   -0.325994   -0.000000
      3          8           0       -0.250507    1.333482    0.000000
      4          1           0        1.862660    0.448043   -0.000000
      5          6           0       -1.025329   -0.958263    0.000000
      6          1           0       -0.563029   -1.945581    0.000000
      7          1           0       -1.662825   -0.845463    0.881620
      8          1           0       -1.662825   -0.845463   -0.881620
 ---------------------------------------------------------------------

 SCF Done:  E(RB3LYP) =  -229.105304954     A.U. after    1 cycles

 The electronic state is 1-A'.
 Alpha  occ. eigenvalues --  -19.21684 -19.15742 -10.33929 -10.21065  -1.12154
 Alpha  occ. eigenvalues --   -1.03076  -0.76940  -0.62628  -0.50287  -0.48973
 Alpha  occ. eigenvalues --   -0.47966  -0.42106  -0.40746  -0.40517  -0.33460
 Alpha  occ. eigenvalues --   -0.29237
 Alpha virt. eigenvalues --   -0.01006  -0.00532   0.02190   0.05235   0.05306
 Alpha virt. eigenvalues --    0.06239   0.07715   0.08504   0.12047   0.15433
 Alpha virt. eigenvalues --    0.16306   0.17088   0.18757   0.22536   0.22921

 Mulliken charges:
               1
     1  C    0.412754
     2  O   -0.434785
     3  O   -0.454012
     4  H    0.361694
     5  C   -0.435861
     6  H    0.174928
     7  H    0.187641
     8  H    0.187641
 Sum of Mulliken charges =  -0.00000

 Dipole moment (field-independent basis, Debye):
    X=              0.3103    Y=             -1.6926    Z=              0.0000  Tot=              1.7208
 Quadrupole moment (field-independent basis, Debye-Ang):
   XX=            -20.5654   YY=            -27.7222   ZZ=            -23.4418
   XY=              4.3759   XZ=             -0.0000   YZ=             -0.0000

  Exact polarizability:  35.678   0.263  35.942   0.000  -0.000  23.713
 Approx polarizability:  45.619  -4.285  51.166   0.000  -0.000  31.705

 ******    1 imaginary frequencies (negative Signs) ******

                      1                      2                      3
                     A"                     A'                     A"
 Frequencies --    -81.2837               428.2821               548.8307
 Red. masses --      1.0765                 2.9886                 1.6220
 Frc consts  --      0.0042                 0.3230                 0.2879
 IR Inten    --   1.693                  4.189                  24.18

                      4                      5                      6
                     A'                     A"                     A'
 Frequencies --    577.6556               700.8215               858.4061
 Red. masses --      4.1628                 1.4986                 3.8411
 Frc consts  --      0.8184                 0.4337                 1.6676
 IR Inten    --   41.18                  118.6                  4.383

                      7                      8                      9
                     A'                     A"                     A'
 Frequencies --   1016.1228              1067.4743              1202.7017
 Red. masses --      1.5571                 1.7421                 2.0076
 Frc consts  --      0.9472                 1.1696                 1.7110
 IR Inten    --   48.40                  6.407                  246.4

                     10                     11                     12
                     A'                     A'                     A"
 Frequencies --   1339.3646              1407.4314              1484.2362
 Red. masses --      1.9429                 1.3439                 1.0450
 Frc consts  --      2.0535                 1.5684                 1.3564
 IR Inten    --   48.20                  52.87                  9.512

                     13                     14                     15
                     A'                     A'                     A'
 Frequencies --   1485.8214              1817.6146              3067.5508
 Red. masses --      1.1141                 9.7075                 1.0358
 Frc consts  --      1.4492                18.8956                 5.7426
 IR Inten    --   7.144                  365.3                  1.498

                     16                     17                     18
                     A"                     A'                     A'
 Frequencies --   3135.8252              3171.4906              3744.0012
 Red. masses --      1.1005                 1.1048                 1.0642
 Frc consts  --      6.3762                 6.5474                 8.7894
 IR Inten    --   2.600                  7.080                  58.61

 - Thermochemistry -
 -------------------
 Temperature   298.150 Kelvin.  Pressure   1.00000 Atm.
 Atom     1 has atomic number  6 and mass  12.00000

 Molecular mass:    60.02113 amu.
 Principal axes and moments of inertia in atomic units:
                           1         2         3
     Eigenvalues --   159.75925 192.68713 341.25700
           X            0.78497  -0.61954   0.00000
           Y            0.61954   0.78497   0.00000
           Z            0.00000   0.00000   1.00000
 This molecule is an asymmetric top.
 Rotational symmetry number  1.
 Rotational temperatures (Kelvin)      0.54215     0.44950     0.25381
 Rotational constants (GHZ):          11.29663     9.36617     5.28851
    1 imaginary frequencies ignored.
 Zero-point vibrational energy     161816.6 (Joules/Mol)
                                   38.67511 (Kcal/Mol)
 Warning -- explicit consideration of   3 degrees of freedom as
           vibrations may cause significant error
 Vibrational temperatures:    616.20   789.64   831.12  1008.32  1235.05
          (Kelvin)           1461.97  1535.86  1730.42  1927.04  2024.98
                             2135.48  2137.76  2615.14  4413.52  4511.75
                             4563.06  5386.78

 Zero-point correction=                           0.061633 (Hartree/Particle)
 Thermal correction to Energy=                    0.065395
 Thermal correction to Enthalpy=                  0.066339
 Thermal correction to Gibbs Free Energy=         0.035597
 Sum of electronic and zero-point Energies=           -229.043672
 Sum of electronic and thermal Energies=              -229.039910
 Sum of electronic and thermal Enthalpies=            -229.038966
 Sum of electronic and thermal Free Energies=         -229.069708

                     E (Thermal)             CV                S
                      KCal/Mol        Cal/Mol-Kelvin    Cal/Mol-Kelvin
 Total                   41.036             12.266             64.702
 Electronic               0.000              0.000              0.000
 Translational            0.889              2.981             38.196
 Rotational               0.889              2.981             23.867
 Vibrational             39.258              6.304              2.639
 Vibration     1          0.790              1.409              0.864
 Vibration     2          0.904              1.142              0.547
 Vibration     3          0.934              1.080              0.490

 Optimization completed.
    -- Stationary point found.
 Normal termination of Gaussian 09 at Tue Sep 17 19:28:21 2024.
