 Gaussian 09, Revision D.01,
 Gaussian 09:  EM64L-G09RevD.01 24-Apr-2013

 ------------------------------------------------------
 #p B3LYP/6-31+g(d,p) opt freq scrf=(smd,solvent=water)
 ------------------------------------------------------

 -----------
 ch3cooh sol
 -----------
 Symbolic Z-matrix:
 Charge =  0 Multiplicity = 1

 SCF Done:  E(RB3LYP) =  -229.110209872     A.U. after   11 cycles
 SCF Done:  E(RB3LYP) =  -229.116093625     A.U. after   10 cycles
 SCF Done:  E(RB3LYP) =  -229.116331176     A.U. after    9 cycles
 SCF Done:  E(RB3LYP) =  -229.116334132     A.U. after    8 cycles
 SCF Done:  E(RB3LYP) =  -229.116332921     A.U. after    8 cycles
 Optimization completed.
    -- Stationary point found.
 Normal termination of Gaussian 09 at Tue Sep 17 19:29:03 2024.

 ----------------------------------------------------------------------
 #P Geom=AllCheck Guess=TCheck SCRF=Check GenChk RB3LYP/6-31+G(d,p) Fre
 q
 ----------------------------------------------------------------------

 Structure from the checkpoint file:  "/g100_scratch/userexternal/ecabiati/g16_14420038/Gau-53348.chk"
 -----------
 ch3cooh sol
 -----------
 Charge =  0 Multiplicity = 1

                         Standard orientation:
 ---------------------------------------------------------------------
 Center     Atomic      Atomic             Coordinates (Angstroms)
 Number     Number       Type             X           Y           Z
 ---------------------------------------------------------------------
      1          6           0        0.000000    0.135734    0.000000
      2          8           0        1.275970   -0.308369    0.000000
      3          8           0       -0.266938    1.332065    0.000000
      4          1           0        1.878088    0.459850    0.000000
      5          6           0       -1.015775   -0.966289   -0.000000
      6          1           0       -0.550146   -1.951608   -0.000000
      7          1           0       -1.652769   -0.857237    0.882866
      8          1           0       -1.652769   -0.857237   -0.882866
 ---------------------------------------------------------------------

 SCF Done:  E(RB3LYP) =  -229.116332921     A.U. after    1 cycles

 The electronic state is 1-A'.
 Alpha  occ. eigenvalues --  -19.21245 -19.16124 -10.34187 -10.19361  -1.11744
 Alpha  occ. eigenvalues --   -1.02824  -0.75859  -0.61902  -0.50799  -0.48514
 Alpha  occ. eigenvalues --   -0.47337  -0.40982  -0.40009  -0.39208  -0.33628
 Alpha  occ. eigenvalues --   -0.29803
 Alpha virt. eigenvalues --   -0.01133   0.00769   0.03953   0.05384   0.06306
 Alpha virt. eigenvalues --    0.07632   0.08199   0.09476   0.13122   0.15788
 Alpha virt. eigenvalues --    0.17151   0.18272   0.19670   0.23115   0.23458

 Mulliken charges:
               1
     1  C    0.509085
     2  O   -0.485620
     3  O   -0.582989
     4  H    0.419973
     5  C   -0.473965
     6  H    0.190812
     7  H    0.211352
     8  H    0.211352
 Sum of Mulliken charges =   0.00000

 Dipole moment (field-independent basis, Debye):
    X=              0.6348    Y=             -2.4457    Z=              0.0000  Tot=              2.5268
 Quadrupole moment (field-independent basis, Debye-Ang):
   XX=            -19.5972   YY=            -28.4933   ZZ=            -23.3263
   XY=              5.3492   XZ=             -0.0000   YZ=             -0.0000

  Exact polarizability:  45.971  -2.104  47.975   0.000   0.000  30.846
 Approx polarizability:  45.384  -4.410  50.019  -0.000  -0.000  31.470

 ******    1 imaginary frequencies (negative Signs) ******

                      1                      2                      3
                     A"                     A'                     A"
 Frequencies --   -176.4022               433.2353               551.0665
 Red. masses --      1.0769                 2.9401                 1.5019
 Frc consts  --      0.0197                 0.3251                 0.2687
 IR Inten    --   4.154                  8.487                  50.14

                      4                      5                      6
                     A'                     A"                     A'
 Frequencies --    574.1599               663.1623               856.5384
 Red. masses --      4.1862                 1.5626                 4.0436
 Frc consts  --      0.8131                 0.4049                 1.7479
 IR Inten    --   77.66                  195.6                  17.43

                      7                      8                      9
                     A'                     A"                     A'
 Frequencies --   1002.3956              1053.5374              1155.1376
 Red. masses --      1.6147                 1.8178                 2.1071
 Frc consts  --      0.9559                 1.1888                 1.6565
 IR Inten    --   121.6                  15.73                  475.9

                     10                     11                     12
                     A'                     A'                     A"
 Frequencies --   1316.1231              1373.7907              1444.2436
 Red. masses --      1.8203                 1.2602                 1.0432
 Frc consts  --      1.8578                 1.4013                 1.2820
 IR Inten    --   76.10                  80.99                  17.88

                     13                     14                     15
                     A'                     A'                     A'
 Frequencies --   1450.3226              1708.5154              3070.1610
 Red. masses --      1.1505                 9.6303                 1.0368
 Frc consts  --      1.4258                16.5626                 5.7579
 IR Inten    --   14.50                  752.9                 0.1963E-01

                     16                     17                     18
                     A"                     A'                     A'
 Frequencies --   3138.8188              3178.8759              3707.5916
 Red. masses --      1.1010                 1.1050                 1.0649
 Frc consts  --      6.3913                 6.5789                 8.6251
 IR Inten    --  0.7237                  9.013                  164.1

 - Thermochemistry -
 -------------------
 Temperature   298.150 Kelvin.  Pressure   1.00000 Atm.
 Atom     1 has atomic number  6 and mass  12.00000

 Molecular mass:    60.02113 amu.
 Principal axes and moments of inertia in atomic units:
                           1         2         3
     Eigenvalues --   159.69313 192.77010 341.24219
           X            0.78565  -0.61868   0.00000
           Y            0.61868   0.78565   0.00000
           Z           -0.00000   0.00000   1.00000
 This molecule is an asymmetric top.
 Rotational symmetry number  1.
 Rotational temperatures (Kelvin)      0.54238     0.44931     0.25382
 Rotational constants (GHZ):          11.30131     9.36214     5.28874
    1 imaginary frequencies ignored.
 Zero-point vibrational energy     159567.9 (Joules/Mol)
                                   38.13765 (Kcal/Mol)
 Warning -- explicit consideration of   3 degrees of freedom as
           vibrations may cause significant error
 Vibrational temperatures:    623.33   792.86   826.09   954.14  1232.37
          (Kelvin)           1442.22  1515.80  1661.98  1893.61  1976.58
                             2077.94  2086.69  2458.17  4417.27  4516.05
                             4573.69  5334.39

 Zero-point correction=                           0.060776 (Hartree/Particle)
 Thermal correction to Energy=                    0.064562
 Thermal correction to Enthalpy=                  0.065507
 Thermal correction to Gibbs Free Energy=         0.034734
 Sum of electronic and zero-point Energies=           -229.055557
 Sum of electronic and thermal Energies=              -229.051771
 Sum of electronic and thermal Enthalpies=            -229.050826
 Sum of electronic and thermal Free Energies=         -229.081599

                     E (Thermal)             CV                S
                      KCal/Mol        Cal/Mol-Kelvin    Cal/Mol-Kelvin
 Total                   40.514             12.452             64.766
 Electronic               0.000              0.000              0.000
 Translational            0.889              2.981             38.196
 Rotational               0.889              2.981             23.867
 Vibrational             38.736              6.490              2.703
 Vibration     1          0.794              1.398              0.848
 Vibration     2          0.906              1.137              0.542
 Vibration     3          0.930              1.087              0.496

 Optimization completed.
    -- Stationary point found.
 Normal termination of Gaussian 09 at Tue Sep 17 19:29:09 2024.
