 Gaussian 09, Revision D.01,
 Gaussian 09:  EM64L-G09RevD.01 24-Apr-2013

 -------------------------------------------------
 #p B3LYP/6-31+g(d,p) opt scrf=(smd,solvent=water)
 -------------------------------------------------

 -----------
 ch3cooh sol
 -----------
 Symbolic Z-matrix:
 Charge =  0 Multiplicity = 1

 SCF Done:  E(RB3LYP) =  -229.110209872     A.U. after   11 cycles
 SCF Done:  E(RB3LYP) =  -229.116093625     A.U. after   10 cycles
 SCF Done:  E(RB3LYP) =  -229.116331176     A.U. after    9 cycles
 SCF Done:  E(RB3LYP) =  -229.116334132     A.U. after    8 cycles
 SCF Done:  E(RB3LYP) =  -229.116332921     A.U. after    8 cycles
 Optimization completed.
    -- Stationary point found.

                         Standard orientation:
 ---------------------------------------------------------------------
 Center     Atomic      Atomic             Coordinates (Angstroms)
 Number     Number       Type             X           Y           Z
 ---------------------------------------------------------------------
      1          6           0        0.000000    0.135734   -0.000000
      2          8           0        1.275970   -0.308369   -0.000000
      3          8           0       -0.266938    1.332065   -0.000000
      4          1           0        1.878088    0.459850   -0.000000
      5          6           0       -1.015775   -0.966289    0.000000
      6          1           0       -0.550146   -1.951608    0.000000
      7          1           0       -1.652769   -0.857237    0.882866
      8          1           0       -1.652769   -0.857237   -0.882866
 ---------------------------------------------------------------------

 The electronic state is 1-A'.
 Alpha  occ. eigenvalues --  -19.21245 -19.16124 -10.34187 -10.19361  -1.11744
 Alpha  occ. eigenvalues --   -1.02824  -0.75859  -0.61902  -0.50799  -0.48514
 Alpha  occ. eigenvalues --   -0.47337  -0.40982  -0.40009  -0.39208  -0.33628
 Alpha  occ. eigenvalues --   -0.29803
 Alpha virt. eigenvalues --   -0.01133   0.00769   0.03953   0.05384   0.06306
 Alpha virt. eigenvalues --    0.07632   0.08199   0.09476   0.13122   0.15788
 Alpha virt. eigenvalues --    0.17151   0.18272   0.19670   0.23115   0.23458

 Mulliken charges:
               1
     1  C    0.509085
     2  O   -0.485620
     3  O   -0.582989
     4  H    0.419973
     5  C   -0.473965
     6  H    0.190812
     7  H    0.211352
     8  H    0.211352
 Sum of Mulliken charges =  -0.00000

 Dipole moment (field-independent basis, Debye):
    X=              0.6348    Y=             -2.4457    Z=              0.0000  Tot=              2.5268
 Quadrupole moment (field-independent basis, Debye-Ang):
   XX=            -19.5972   YY=            -28.4933   ZZ=            -23.3263
   XY=              5.3492   XZ=             -0.0000   YZ=              0.0000

 Normal termination of Gaussian 09 at Tue Sep 17 13:14:41 2024.
