 Gaussian 09, Revision D.01,
 Gaussian 09:  EM64L-G09RevD.01 24-Apr-2013

 ----------------------------------------------------------------------
 #p B3LYP/6-31g(d,p) opt=(Z-Matrix,ts,calcfc,noeigentest) nosym freq te
 mperature=300 pop=full gfinput
 ----------------------------------------------------------------------

 ------------------
 ch4+h to ch3+h2 ts
 ------------------
 Symbolic Z-matrix:
 Charge =  0 Multiplicity = 2

 SCF Done:  E(UB3LYP) =  -41.0095138645     A.U. after   12 cycles
 SCF Done:  E(UB3LYP) =  -41.0094786354     A.U. after   12 cycles
 SCF Done:  E(UB3LYP) =  -41.0094787046     A.U. after    9 cycles
 Optimization completed.
    -- Stationary point found.
 Normal termination of Gaussian 09 at Fri Sep 13 21:10:52 2024.

 ----------------------------------------------------------------------
 #P Geom=AllCheck Guess=TCheck SCRF=Check GenChk UB3LYP/6-31G(d,p) Freq
 ----------------------------------------------------------------------

 Structure from the checkpoint file:  "ts.chk"
 ------------------
 ch4+h to ch3+h2 ts
 ------------------
 Charge =  0 Multiplicity = 2

                          Input orientation:
 ---------------------------------------------------------------------
 Center     Atomic      Atomic             Coordinates (Angstroms)
 Number     Number       Type             X           Y           Z
 ---------------------------------------------------------------------
      1          6           0        0.000000    0.000000    0.000000
      2          1           0        0.000000    0.000000    1.087384
      3          1           0        0.986769    0.000000   -0.456844
      4          1           0       -0.714984   -0.680040   -0.456895
      5          1           0       -0.509780    1.276060   -0.325920
      6          1           0       -0.832415    2.083748   -0.532211
 ---------------------------------------------------------------------

 SCF Done:  E(UB3LYP) =  -41.0094787046     A.U. after    1 cycles

 Alpha  occ. eigenvalues --  -10.19697  -0.70212  -0.44665  -0.41517  -0.41517
 Alpha  occ. eigenvalues --   -0.21364
 Alpha virt. eigenvalues --    0.11489   0.16962   0.16962   0.20188   0.51724
 Alpha virt. eigenvalues --    0.51724   0.54741   0.68092   0.87069   0.87069
 Alpha virt. eigenvalues --    0.90419   0.96648   1.18336   1.36860   1.36860

  Beta  occ. eigenvalues --  -10.18614  -0.67463  -0.40755  -0.40754  -0.40361
  Beta virt. eigenvalues --   -0.07439   0.12307   0.17599   0.17599   0.23134
  Beta virt. eigenvalues --    0.52143   0.52144   0.59427   0.72041   0.87693
  Beta virt. eigenvalues --    0.87693   0.92709   0.97599   1.20468   1.39341

 Mulliken charges and spin densities:
               1          2
     1  C   -0.402624   0.699719
     2  H    0.136338  -0.020211
     3  H    0.136337  -0.020212
     4  H    0.136337  -0.020210
     5  H    0.030223  -0.133265
     6  H   -0.036611   0.494179
 Sum of Mulliken charges =  -0.00000   1.00000

 Dipole moment (field-independent basis, Debye):
    X=              0.2746    Y=             -0.6873    Z=              0.1755  Tot=              0.7606
 Quadrupole moment (field-independent basis, Debye-Ang):
   XX=             -9.5236   YY=            -11.1307   ZZ=             -9.3430
   XY=              0.7642   XZ=             -0.1951   YZ=              0.4884

  Exact polarizability:  14.947  -5.157  25.798   1.317  -3.298  13.729
 Approx polarizability:  17.880  -6.247  31.025   1.596  -3.995  16.406

 ******    1 imaginary frequencies (negative Signs) ******

                      1                      2                      3
                      A                      A                      A
 Frequencies --  -1139.8601               552.4842               552.5627
 Red. masses --      1.1632                 1.0457                 1.0457
 Frc consts  --      0.8904                 0.1881                 0.1881
 IR Inten    --   3.465                 0.4123                 0.4119

                      4                      5                      6
                      A                      A                      A
 Frequencies --   1085.3809              1164.7938              1164.8441
 Red. masses --      1.0785                 1.0490                 1.0490
 Frc consts  --      0.7486                 0.8385                 0.8386
 IR Inten    --   4.154                  2.736                  2.738

                      7                      8                      9
                      A                      A                      A
 Frequencies --   1446.5351              1446.8470              1893.1291
 Red. masses --      1.0753                 1.0752                 1.0750
 Frc consts  --      1.3256                 1.3261                 2.2699
 IR Inten    --   3.296                  3.296                  21.34

                     10                     11                     12
                      A                      A                      A
 Frequencies --   3092.5421              3240.7090              3240.8494
 Red. masses --      1.0173                 1.1123                 1.1123
 Frc consts  --      5.7324                 6.8828                 6.8834
 IR Inten    --  0.4513                  11.00                  11.01

 - Thermochemistry -
 -------------------
 Temperature   300.000 Kelvin.  Pressure   1.00000 Atm.
 Atom     1 has atomic number  6 and mass  12.00000

 Molecular mass:    17.03913 amu.
 Principal axes and moments of inertia in atomic units:
                           1         2         3
     Eigenvalues --    12.08694  31.16875  31.16896
           X           -0.36094   0.65045  -0.66830
           Y            0.90358   0.42126  -0.07800
           Z           -0.23080   0.63202   0.73979
 This molecule is an asymmetric top.
 Rotational symmetry number  1.
 Rotational temperatures (Kelvin)      7.16590     2.77887     2.77885
 Rotational constants (GHZ):         149.31330    57.90227    57.90188
    1 imaginary frequencies ignored.
 Zero-point vibrational energy     112931.5 (Joules/Mol)
                                   26.99128 (Kcal/Mol)
 Warning -- explicit consideration of   2 degrees of freedom as
           vibrations may cause significant error
 Vibrational temperatures:    794.90   795.01  1561.62  1675.88  1675.95
          (Kelvin)           2081.24  2081.69  2723.79  4449.47  4662.65
                             4662.85

 Zero-point correction=                           0.043013 (Hartree/Particle)
 Thermal correction to Energy=                    0.046327
 Thermal correction to Enthalpy=                  0.047277
 Thermal correction to Gibbs Free Energy=         0.021330
 Sum of electronic and zero-point Energies=            -40.966465
 Sum of electronic and thermal Energies=               -40.963151
 Sum of electronic and thermal Enthalpies=             -40.962201
 Sum of electronic and thermal Free Energies=          -40.988149

                     E (Thermal)             CV                S
                      KCal/Mol        Cal/Mol-Kelvin    Cal/Mol-Kelvin
 Total                   29.071              9.217             54.275
 Electronic               0.000              0.000              1.377
 Translational            0.894              2.981             34.474
 Rotational               0.894              2.981             17.132
 Vibrational             27.282              3.255              1.291
 Vibration     1          0.910              1.142              0.546
 Vibration     2          0.910              1.142              0.546

 Normal termination of Gaussian 09 at Fri Sep 13 21:10:55 2024.
