 Gaussian 09, Revision A.02,
 Gaussian 09:  EM64L-G09RevA.02 11-Jun-2009

 ------------------------
 #p scan pop=full gfinput
 ------------------------

 ------
 ethane
 ------
 Symbolic Z-matrix:
 Charge =  0 Multiplicity = 1

 SCF Done:  E(RHF) =  -78.2751386322     A.U. after    8 cycles

 The electronic state is 1-AG.
 Alpha  occ. eigenvalues --  -11.03138 -11.03107  -0.97803  -0.81333  -0.59773
 Alpha  occ. eigenvalues --   -0.52955  -0.48835  -0.47428  -0.41393
 Alpha virt. eigenvalues --    0.58535   0.65195   0.68969   0.70515   0.77751
 Alpha virt. eigenvalues --    0.78319   0.86825

 Mulliken atomic charges:
              1
     1  C   -0.180166
     2  C   -0.180166
     3  H    0.050022
     4  H    0.065072
     5  H    0.065072
     6  H    0.050022
     7  H    0.065072
     8  H    0.065072
 Sum of Mulliken atomic charges =   0.00000

 Dipole moment (field-independent basis, Debye):
    X=              0.0000    Y=              0.0000    Z=             -0.0000  Tot=              0.0000
 Quadrupole moment (field-independent basis, Debye-Ang):
   XX=            -14.7020   YY=            -14.2842   ZZ=            -13.3425
   XY=             -0.3010   XZ=             -0.0000   YZ=             -0.0000

 SCF Done:  E(RHF) =  -78.2748503063     A.U. after   10 cycles
 SCF Done:  E(RHF) =  -78.2740577769     A.U. after    8 cycles
 SCF Done:  E(RHF) =  -78.2729612255     A.U. after    8 cycles
 SCF Done:  E(RHF) =  -78.2718401016     A.U. after    8 cycles
 SCF Done:  E(RHF) =  -78.2709828089     A.U. after    8 cycles
 SCF Done:  E(RHF) =  -78.2706105962     A.U. after    8 cycles
 SCF Done:  E(RHF) =  -78.2708161510     A.U. after    8 cycles
 SCF Done:  E(RHF) =  -78.2715360470     A.U. after    8 cycles
 SCF Done:  E(RHF) =  -78.2725670592     A.U. after    8 cycles
 SCF Done:  E(RHF) =  -78.2725670592     A.U. after    8 cycles
 SCF Done:  E(RHF) =  -78.2715360470     A.U. after    8 cycles
 SCF Done:  E(RHF) =  -78.2708161510     A.U. after    8 cycles
 SCF Done:  E(RHF) =  -78.2706105962     A.U. after    8 cycles
 SCF Done:  E(RHF) =  -78.2709828089     A.U. after    8 cycles
 SCF Done:  E(RHF) =  -78.2718401016     A.U. after    8 cycles
 SCF Done:  E(RHF) =  -78.2729612255     A.U. after    8 cycles
 SCF Done:  E(RHF) =  -78.2740577769     A.U. after    8 cycles
 SCF Done:  E(RHF) =  -78.2748503063     A.U. after    8 cycles

                         Standard orientation:
 ---------------------------------------------------------------------
 Center     Atomic      Atomic             Coordinates (Angstroms)
 Number     Number       Type             X           Y           Z
 ---------------------------------------------------------------------
      1          6           0        0.000000    0.770000    0.000000
      2          6           0       -0.000000   -0.770000    0.000000
      3          1           0       -1.017603    1.160621   -0.000000
      4          1           0        0.314457    1.160621    0.967798
      5          1           0        0.314457    1.160621   -0.967798
      6          1           0        1.017603   -1.160621   -0.000000
      7          1           0       -0.314457   -1.160621    0.967798
      8          1           0       -0.314457   -1.160621   -0.967798
 ---------------------------------------------------------------------

 SCF Done:  E(RHF) =  -78.2751386322     A.U. after    8 cycles
 Normal termination of Gaussian 09 at Tue Aug 13 15:14:59 2024.
