 Gaussian 09, Revision A.02,
 Gaussian 09:  EM64L-G09RevA.02 11-Jun-2009

 -----------------------------------------
 #p B3LYP/6-31+g(d,p) opt pop=full gfinput
 -----------------------------------------

 ------
 ethane
 ------
 Symbolic Z-matrix:
 Charge =  0 Multiplicity = 1

 SCF Done:  E(RB3LYP) =  -79.8207288364     A.U. after    8 cycles
 SCF Done:  E(RB3LYP) =  -79.8324745450     A.U. after    8 cycles
 SCF Done:  E(RB3LYP) =  -79.8405875263     A.U. after    8 cycles
 SCF Done:  E(RB3LYP) =  -79.8416028075     A.U. after    7 cycles
 SCF Done:  E(RB3LYP) =  -79.8416407036     A.U. after    7 cycles
 Optimization completed.
    -- Stationary point found.

                         Standard orientation:
 ---------------------------------------------------------------------
 Center     Atomic      Atomic             Coordinates (Angstroms)
 Number     Number       Type             X           Y           Z
 ---------------------------------------------------------------------
      1          6           0        0.000000    0.766489    0.000000
      2          6           0       -0.000000   -0.766489    0.000000
      3          1           0       -1.020048    1.164574   -0.000000
      4          1           0        0.510286    1.164507    0.883840
      5          1           0        0.510286    1.164507   -0.883840
      6          1           0        1.020048   -1.164574    0.000000
      7          1           0       -0.510286   -1.164507    0.883840
      8          1           0       -0.510286   -1.164507   -0.883840
 ---------------------------------------------------------------------

 The electronic state is 1-AG.
 Alpha  occ. eigenvalues --  -10.17799 -10.17778  -0.75294  -0.61722  -0.43478
 Alpha  occ. eigenvalues --   -0.43473  -0.36828  -0.34466  -0.34461
 Alpha virt. eigenvalues --    0.01750   0.03031   0.05369   0.05370   0.08041
 Alpha virt. eigenvalues --    0.08966   0.08966   0.14269   0.19579   0.19588
 Alpha virt. eigenvalues --    0.19801   0.19809   0.25463   0.29768   0.32698

 Mulliken atomic charges:
              1
     1  C   -0.434436
     2  C   -0.434436
     3  H    0.144864
     4  H    0.144786
     5  H    0.144786
     6  H    0.144864
     7  H    0.144786
     8  H    0.144786
 Sum of Mulliken atomic charges =  -0.00000

 Dipole moment (field-independent basis, Debye):
    X=             -0.0000    Y=             -0.0000    Z=              0.0000  Tot=              0.0000
 Quadrupole moment (field-independent basis, Debye-Ang):
   XX=            -15.0735   YY=            -15.7660   ZZ=            -15.0730
   XY=             -0.0014   XZ=              0.0000   YZ=             -0.0000

 Normal termination of Gaussian 09 at Mon Aug 12 17:02:55 2024.
