 Gaussian 09, Revision D.01,
 Gaussian 09:  EM64L-G09RevD.01 24-Apr-2013

 ----------------------------------------------------------------------
 #p B3LYP/6-31+g(d,p) opt=(Z-matrix,maxcycle=50,maxstep=35) temperature
 =300 pop=full gfinput
 ----------------------------------------------------------------------

 -----
 nh3+h
 -----
 Symbolic Z-matrix:
 Charge =  0 Multiplicity = 2

 SCF Done:  E(UB3LYP) =  -57.0654348462     A.U. after   14 cycles
 SCF Done:  E(UB3LYP) =  -57.0662653622     A.U. after   11 cycles
 SCF Done:  E(UB3LYP) =  -57.0666133719     A.U. after   11 cycles
 SCF Done:  E(UB3LYP) =  -57.0672520169     A.U. after   11 cycles
 SCF Done:  E(UB3LYP) =  -57.0676915944     A.U. after   11 cycles
 SCF Done:  E(UB3LYP) =  -57.0677944451     A.U. after   10 cycles
 SCF Done:  E(UB3LYP) =  -57.0677631260     A.U. after   11 cycles
 SCF Done:  E(UB3LYP) =  -57.0678155108     A.U. after    8 cycles
 SCF Done:  E(UB3LYP) =  -57.0678168199     A.U. after    8 cycles
 SCF Done:  E(UB3LYP) =  -57.0678168663     A.U. after    7 cycles
 SCF Done:  E(UB3LYP) =  -57.0678168918     A.U. after    6 cycles
 SCF Done:  E(UB3LYP) =  -57.0678169580     A.U. after    7 cycles
 SCF Done:  E(UB3LYP) =  -57.0678164651     A.U. after    9 cycles
 SCF Done:  E(UB3LYP) =  -57.0678169580     A.U. after    6 cycles
 SCF Done:  E(UB3LYP) =  -57.0678169856     A.U. after    6 cycles
 SCF Done:  E(UB3LYP) =  -57.0678169373     A.U. after    7 cycles
 SCF Done:  E(UB3LYP) =  -57.0678170208     A.U. after    7 cycles
 Optimization completed.
    -- Stationary point found.

                         Standard orientation:
 ---------------------------------------------------------------------
 Center     Atomic      Atomic             Coordinates (Angstroms)
 Number     Number       Type             X           Y           Z
 ---------------------------------------------------------------------
      1          7           0        0.347405    0.000000   -0.111740
      2          1           0        0.652472    0.822093    0.401169
      3          1           0       -0.668805    0.000086   -0.130611
      4          1           0        0.652329   -0.822181    0.401113
      5          1           0       -3.067829    0.000001    0.110511
 ---------------------------------------------------------------------

 The electronic state is 2-A.
 Alpha  occ. eigenvalues --  -14.32416  -0.85722  -0.46909  -0.46841  -0.32982
 Alpha  occ. eigenvalues --   -0.26738
 Alpha virt. eigenvalues --    0.02297   0.08974   0.10280   0.11999   0.19597
 Alpha virt. eigenvalues --    0.19619   0.25158   0.73279   0.82902   0.85259
 Alpha virt. eigenvalues --    0.88356   0.91434   0.92664   1.05979   1.13709

  Beta  occ. eigenvalues --  -14.32389  -0.85645  -0.46824  -0.46806  -0.26729
  Beta virt. eigenvalues --   -0.07626   0.02895   0.08897   0.10902   0.12123
  Beta virt. eigenvalues --    0.19576   0.19956   0.25076   0.82909   0.83609
  Beta virt. eigenvalues --    0.88053   0.89844   0.91432   0.98501   1.05977

 Mulliken charges and spin densities:
               1          2
     1  N   -0.887534   0.022740
     2  H    0.293272  -0.000420
     3  H    0.287831  -0.005217
     4  H    0.293271  -0.000420
     5  H    0.013160   0.983317
 Sum of Mulliken charges =  -0.00000   1.00000

 Dipole moment (field-independent basis, Debye):
    X=             -0.7549    Y=             -0.0000    Z=              1.6422  Tot=              1.8074
 Quadrupole moment (field-independent basis, Debye-Ang):
   XX=             -8.0250   YY=             -7.6188   ZZ=            -10.6930
   XY=              0.0000   XZ=              1.7150   YZ=              0.0000

 Normal termination of Gaussian 09 at Sun Sep 15 21:13:37 2024.
