 Gaussian 09, Revision D.01,
 Gaussian 09:  EM64L-G09RevD.01 24-Apr-2013

 ----------------------------------------------------------------------
 #p B3LYP/6-31+g(d,p) opt=(Z-matrix,maxcycle=50,maxstep=35) temperature
 =300 pop=full gfinput
 ----------------------------------------------------------------------

 -----
 ch4+h
 -----
 Symbolic Z-matrix:
 Charge =  0 Multiplicity = 2

 SCF Done:  E(UB3LYP) =  -57.0480167562     A.U. after   14 cycles
 SCF Done:  E(UB3LYP) =  -57.0571079035     A.U. after   11 cycles
 SCF Done:  E(UB3LYP) =  -57.0599154305     A.U. after   11 cycles
 SCF Done:  E(UB3LYP) =  -57.0601746379     A.U. after   10 cycles
 SCF Done:  E(UB3LYP) =  -57.0607179516     A.U. after   10 cycles
 SCF Done:  E(UB3LYP) =  -57.0612653342     A.U. after   10 cycles
 SCF Done:  E(UB3LYP) =  -57.0613928433     A.U. after   10 cycles
 SCF Done:  E(UB3LYP) =  -57.0614230486     A.U. after   10 cycles
 SCF Done:  E(UB3LYP) =  -57.0614233086     A.U. after    7 cycles
 SCF Done:  E(UB3LYP) =  -57.0614233101     A.U. after    6 cycles
 SCF Done:  E(UB3LYP) =  -57.0607647979     A.U. after   10 cycles
 SCF Done:  E(UB3LYP) =  -57.0614233111     A.U. after    6 cycles
 SCF Done:  E(UB3LYP) =  -57.0614219012     A.U. after    8 cycles
 SCF Done:  E(UB3LYP) =  -57.0605575948     A.U. after   10 cycles
 SCF Done:  E(UB3LYP) =  -57.0614233111     A.U. after    6 cycles
 SCF Done:  E(UB3LYP) =  -57.0614214862     A.U. after    9 cycles
 SCF Done:  E(UB3LYP) =  -57.0598135394     A.U. after   10 cycles
 SCF Done:  E(UB3LYP) =  -57.0614233111     A.U. after    6 cycles
 SCF Done:  E(UB3LYP) =  -57.0614214594     A.U. after    9 cycles
 SCF Done:  E(UB3LYP) =  -57.0614233111     A.U. after    6 cycles
 Optimization completed.
    -- Stationary point found.

                         Standard orientation:
 ---------------------------------------------------------------------
 Center     Atomic      Atomic             Coordinates (Angstroms)
 Number     Number       Type             X           Y           Z
 ---------------------------------------------------------------------
      1          7           0       -0.000000    0.000000    0.315210
      2          1           0        0.000000    0.867121    0.815998
      3          1           0        0.000000   -0.000000   -0.686591
      4          1           0       -0.000000   -0.867121    0.815998
      5          1           0        0.000000   -0.000000   -3.151874
 ---------------------------------------------------------------------

 The electronic state is 2-A1.
 Alpha  occ. eigenvalues --  -14.31358  -0.84135  -0.48594  -0.48544  -0.32681
 Alpha  occ. eigenvalues --   -0.24139
 Alpha virt. eigenvalues --    0.03264   0.08440   0.09860   0.11757   0.21122
 Alpha virt. eigenvalues --    0.21292   0.21798   0.73044   0.82130   0.85035
 Alpha virt. eigenvalues --    0.88286   0.95623   0.95937   0.97668   1.09909

  Beta  occ. eigenvalues --  -14.31340  -0.84092  -0.48530  -0.48521  -0.24119
  Beta virt. eigenvalues --   -0.06087   0.03726   0.08340   0.10913   0.11682
  Beta virt. eigenvalues --    0.21249   0.21348   0.21765   0.82130   0.83068
  Beta virt. eigenvalues --    0.88292   0.93593   0.95626   0.97616   0.99201

 Mulliken charges and spin densities:
               1          2
     1  N   -0.925435   0.016369
     2  H    0.305956   0.000257
     3  H    0.301012  -0.003222
     4  H    0.305956   0.000257
     5  H    0.012510   0.986339
 Sum of Mulliken charges =  -0.00000   1.00000

 Dipole moment (field-independent basis, Debye):
    X=             -0.0000    Y=              0.0000    Z=             -0.1032  Tot=              0.1032
 Quadrupole moment (field-independent basis, Debye-Ang):
   XX=            -11.7564   YY=             -7.1262   ZZ=             -6.6145
   XY=              0.0000   XZ=             -0.0000   YZ=             -0.0000

 Normal termination of Gaussian 09 at Sat Sep 14 00:53:24 2024.
