 Gaussian 09, Revision A.02,
 Gaussian 09:  EM64L-G09RevA.02 11-Jun-2009

 ------------------------------------------
 #p b3lyp/6-31++G opt freq pop=full gfinput
 ------------------------------------------

 -------------------------------------------------
 hydrogen(molecule) with hf/6-31++G basis function
 -------------------------------------------------
 Symbolic Z-matrix:
 Charge =  0 Multiplicity = 1

 SCF Done:  E(RB3LYP) =  -1.17594153592     A.U. after    5 cycles
 SCF Done:  E(RB3LYP) =  -1.17594923089     A.U. after    4 cycles
 Optimization completed.
    -- Stationary point found.
 Normal termination of Gaussian 09 at Sat Aug 17 19:55:38 2024.

 -------------------------------------------------------------------
 #P Geom=AllCheck Guess=TCheck SCRF=Check GenChk RB3LYP/6-31++G Freq
 -------------------------------------------------------------------

 hydrogen(molecule) with hf/6-31++G basis function
 -------------------------------------------------
 Redundant internal coordinates taken from checkpoint file:
 /home/ospite/Desktop/MMfP/Project6/H2/g09/DFT/Gau-12885.chk
 Charge =  0 Multiplicity = 1

                         Standard orientation:
 ---------------------------------------------------------------------
 Center     Atomic      Atomic             Coordinates (Angstroms)
 Number     Number       Type             X           Y           Z
 ---------------------------------------------------------------------
      1          1           0        0.000000    0.000000    0.371638
      2          1           0        0.000000    0.000000   -0.371638
 ---------------------------------------------------------------------

 SCF Done:  E(RB3LYP) =  -1.17594923089     A.U. after    1 cycles

 The electronic state is 1-SGG.
 Alpha  occ. eigenvalues --   -0.43710
 Alpha virt. eigenvalues --    0.01989   0.03858   0.17984   0.74915   1.18299

 Mulliken atomic charges:
              1
     1  H   -0.000000
     2  H   -0.000000
 Sum of Mulliken atomic charges =  -0.00000

 Dipole moment (field-independent basis, Debye):
    X=             -0.0000    Y=              0.0000    Z=              0.0000  Tot=              0.0000
 Quadrupole moment (field-independent basis, Debye-Ang):
   XX=             -2.0805   YY=             -2.0805   ZZ=             -1.6628
   XY=              0.0000   XZ=             -0.0000   YZ=              0.0000

  Exact polarizability:   0.000   0.000   0.000  -0.000   0.000   6.917
 Approx polarizability:   0.000  -0.000  -0.000  -0.000  -0.000   8.379

                     1
                    SGG
 Frequencies --  4440.1814
 Red. masses --     1.0078
 Frc consts  --    11.7068
 IR Inten    --     0.0000

 - Thermochemistry -
 -------------------
 Temperature   298.150 Kelvin.  Pressure   1.00000 Atm.
 Atom     1 has atomic number  1 and mass   1.00783

 Molecular mass:     2.01565 amu.
 Principal axes and moments of inertia in atomic units:
                           1         2         3
     Eigenvalues --     0.00000   0.99415   0.99415
           X           -0.00000   1.00000  -0.00000
           Y            0.00000   0.00000   1.00000
           Z            1.00000   0.00000  -0.00000
 This molecule is a prolate symmetric top.
 Rotational symmetry number  2.
 Rotational temperature (Kelvin)     87.12316
 Rotational constant (GHZ):        1815.354238
 Zero-point vibrational energy      26558.2 (Joules/Mol)
                                    6.34756 (Kcal/Mol)
 Vibrational temperatures:   6388.42
          (Kelvin)

 Zero-point correction=                           0.010115 (Hartree/Particle)
 Thermal correction to Energy=                    0.012476
 Thermal correction to Enthalpy=                  0.013420
 Thermal correction to Gibbs Free Energy=        -0.001373
 Sum of electronic and zero-point Energies=             -1.165834
 Sum of electronic and thermal Energies=                -1.163473
 Sum of electronic and thermal Enthalpies=              -1.162529
 Sum of electronic and thermal Free Energies=           -1.177322

                     E (Thermal)             CV                S
                      KCal/Mol        Cal/Mol-Kelvin    Cal/Mol-Kelvin
 Total                    7.829              4.968             31.135
 Electronic               0.000              0.000              0.000
 Translational            0.889              2.981             28.080
 Rotational               0.592              1.987              3.055
 Vibrational              6.348              0.000              0.000

 Optimization completed.
    -- Stationary point found.
 Normal termination of Gaussian 09 at Sat Aug 17 19:55:44 2024.
