 Gaussian 09, Revision A.02,
 Gaussian 09:  EM64L-G09RevA.02 11-Jun-2009

 ---------------------------------------
 #p hf/6-31++G opt freq pop=full gfinput
 ---------------------------------------

 -------------------------------------------------
 hydrogen(molecule) with hf/6-31++G basis function
 -------------------------------------------------
 Symbolic Z-matrix:
 Charge =  0 Multiplicity = 1

 SCF Done:  E(RHF) =  -1.12685574032     A.U. after    5 cycles
 SCF Done:  E(RHF) =  -1.12692379775     A.U. after    4 cycles
 Optimization completed.
    -- Stationary point found.
 Normal termination of Gaussian 09 at Sat Aug 17 19:51:18 2024.

 ----------------------------------------------------------------
 #P Geom=AllCheck Guess=TCheck SCRF=Check GenChk RHF/6-31++G Freq
 ----------------------------------------------------------------

 hydrogen(molecule) with hf/6-31++G basis function
 -------------------------------------------------
 Redundant internal coordinates taken from checkpoint file:
 /home/ospite/Desktop/MMfP/Project6/H2/g09/HF/Gau-12624.chk
 Charge =  0 Multiplicity = 1

                         Standard orientation:
 ---------------------------------------------------------------------
 Center     Atomic      Atomic             Coordinates (Angstroms)
 Number     Number       Type             X           Y           Z
 ---------------------------------------------------------------------
      1          1           0        0.000000    0.000000    0.365056
      2          1           0        0.000000    0.000000   -0.365056
 ---------------------------------------------------------------------

 SCF Done:  E(RHF) =  -1.12692379775     A.U. after    1 cycles

 The electronic state is 1-SGG.
 Alpha  occ. eigenvalues --   -0.59968
 Alpha virt. eigenvalues --    0.07560   0.08852   0.30654   0.94076   1.49387

 Mulliken atomic charges:
              1
     1  H   -0.000000
     2  H   -0.000000
 Sum of Mulliken atomic charges =  -0.00000

 Dipole moment (field-independent basis, Debye):
    X=              0.0000    Y=              0.0000    Z=              0.0000  Tot=              0.0000
 Quadrupole moment (field-independent basis, Debye-Ang):
   XX=             -2.0552   YY=             -2.0552   ZZ=             -1.6440
   XY=              0.0000   XZ=             -0.0000   YZ=              0.0000

  Exact polarizability:   0.000   0.000   0.000  -0.000   0.000   6.600
 Approx polarizability:   0.000  -0.000  -0.000  -0.000  -0.000   5.088

                     1
                    SGG
 Frequencies --  4639.5997
 Red. masses --     1.0078
 Frc consts  --    12.7819
 IR Inten    --     0.0000
 Raman Activ --   105.5091

 - Thermochemistry -
 -------------------
 Temperature   298.150 Kelvin.  Pressure   1.00000 Atm.
 Atom     1 has atomic number  1 and mass   1.00783

 Molecular mass:     2.01565 amu.
 Principal axes and moments of inertia in atomic units:
                           1         2         3
     Eigenvalues --    -0.00000   0.95925   0.95925
           X           -0.00000   1.00000  -0.00000
           Y            0.00000   0.00000   1.00000
           Z            1.00000   0.00000  -0.00000
 This molecule is a prolate symmetric top.
 Rotational symmetry number  2.
 Rotational temperature (Kelvin)     90.29347
 Rotational constant (GHZ):        1881.412854
 Zero-point vibrational energy      27751.0 (Joules/Mol)
                                    6.63264 (Kcal/Mol)
 Vibrational temperatures:   6675.34
          (Kelvin)

 Zero-point correction=                           0.010570 (Hartree/Particle)
 Thermal correction to Energy=                    0.012930
 Thermal correction to Enthalpy=                  0.013874
 Thermal correction to Gibbs Free Energy=        -0.000885
 Sum of electronic and zero-point Energies=             -1.116354
 Sum of electronic and thermal Energies=                -1.113994
 Sum of electronic and thermal Enthalpies=              -1.113049
 Sum of electronic and thermal Free Energies=           -1.127809

                     E (Thermal)             CV                S
                      KCal/Mol        Cal/Mol-Kelvin    Cal/Mol-Kelvin
 Total                    8.114              4.968             31.064
 Electronic               0.000              0.000              0.000
 Translational            0.889              2.981             28.080
 Rotational               0.592              1.987              2.984
 Vibrational              6.633              0.000              0.000

 Optimization completed.
    -- Stationary point found.
 Normal termination of Gaussian 09 at Sat Aug 17 19:51:25 2024.
