 Gaussian 09, Revision A.02,
 Gaussian 09:  EM64L-G09RevA.02 11-Jun-2009

 -------------------------------------------
 #p hf/aug-cc-pVDZ opt freq pop=full gfinput
 -------------------------------------------

 --------------------------------------------------------
 hydrogen (moldecule) with and aug-cc-pVDZ basis function
 --------------------------------------------------------
 Symbolic Z-matrix:
 Charge =  0 Multiplicity = 1

 SCF Done:  E(RHF) =  -1.12877827539     A.U. after    6 cycles
 SCF Done:  E(RHF) =  -1.12882581624     A.U. after    5 cycles
 Optimization completed.
    -- Stationary point found.
 Normal termination of Gaussian 09 at Sat Aug 17 19:52:04 2024.

 --------------------------------------------------------------------
 #P Geom=AllCheck Guess=TCheck SCRF=Check GenChk RHF/Aug-CC-pVDZ Freq
 --------------------------------------------------------------------

 hydrogen (moldecule) with and aug-cc-pVDZ basis function
 --------------------------------------------------------
 Redundant internal coordinates taken from checkpoint file:
 /home/ospite/Desktop/MMfP/Project6/H2/g09/HF/Gau-12680.chk
 Charge =  0 Multiplicity = 1

                         Standard orientation:
 ---------------------------------------------------------------------
 Center     Atomic      Atomic             Coordinates (Angstroms)
 Number     Number       Type             X           Y           Z
 ---------------------------------------------------------------------
      1          1           0        0.000000    0.000000    0.374222
      2          1           0        0.000000    0.000000   -0.374222
 ---------------------------------------------------------------------

 SCF Done:  E(RHF) =  -1.12882581624     A.U. after    1 cycles

 The electronic state is 1-SGG.
 Alpha  occ. eigenvalues --   -0.59024
 Alpha virt. eigenvalues --    0.06139   0.06709   0.23104   0.28474   0.28474
 Alpha virt. eigenvalues --    0.41653   0.45823   0.45823   0.55809   0.71919
 Alpha virt. eigenvalues --    1.22794   1.60427   1.60427   2.07598   2.23849

 Mulliken atomic charges:
              1
     1  H   -0.000000
     2  H   -0.000000
 Sum of Mulliken atomic charges =  -0.00000

 Dipole moment (field-independent basis, Debye):
    X=             -0.0000    Y=              0.0000    Z=             -0.0000  Tot=              0.0000
 Quadrupole moment (field-independent basis, Debye-Ang):
   XX=             -2.0711   YY=             -2.0711   ZZ=             -1.4501
   XY=             -0.0000   XZ=             -0.0000   YZ=              0.0000

  Exact polarizability:   4.451   0.000   4.451  -0.000   0.000   6.630
 Approx polarizability:   3.198  -0.000   3.198  -0.000  -0.000   5.001

                     1
                    SGG
 Frequencies --  4554.1348
 Red. masses --     1.0078
 Frc consts  --    12.3154
 IR Inten    --     0.0000
 Raman Activ --   168.3844

 - Thermochemistry -
 -------------------
 Temperature   298.150 Kelvin.  Pressure   1.00000 Atm.
 Atom     1 has atomic number  1 and mass   1.00783

 Molecular mass:     2.01565 amu.
 Principal axes and moments of inertia in atomic units:
                           1         2         3
     Eigenvalues --    -0.00000   1.00803   1.00803
           X           -0.00000   1.00000  -0.00000
           Y            0.00000   0.00000   1.00000
           Z            1.00000   0.00000  -0.00000
 This molecule is a prolate symmetric top.
 Rotational symmetry number  2.
 Rotational temperature (Kelvin)     85.92419
 Rotational constant (GHZ):        1790.371667
 Zero-point vibrational energy      27239.8 (Joules/Mol)
                                    6.51046 (Kcal/Mol)
 Vibrational temperatures:   6552.38
          (Kelvin)

 Zero-point correction=                           0.010375 (Hartree/Particle)
 Thermal correction to Energy=                    0.012736
 Thermal correction to Enthalpy=                  0.013680
 Thermal correction to Gibbs Free Energy=        -0.001127
 Sum of electronic and zero-point Energies=             -1.118451
 Sum of electronic and thermal Energies=                -1.116090
 Sum of electronic and thermal Enthalpies=              -1.115146
 Sum of electronic and thermal Free Energies=           -1.129952

                     E (Thermal)             CV                S
                      KCal/Mol        Cal/Mol-Kelvin    Cal/Mol-Kelvin
 Total                    7.992              4.968             31.162
 Electronic               0.000              0.000              0.000
 Translational            0.889              2.981             28.080
 Rotational               0.592              1.987              3.082
 Vibrational              6.510              0.000              0.000

 Optimization completed.
    -- Stationary point found.
 Normal termination of Gaussian 09 at Sat Aug 17 19:52:08 2024.
