 Gaussian 09, Revision A.02,
 Gaussian 09:  EM64L-G09RevA.02 11-Jun-2009

 ---------------------------------------
 #p hf/cc-pVQZ opt freq pop=full gfinput
 ---------------------------------------

 -----------------------------------------
 hydogen (molecule) with cc-pVQZ basis set
 -----------------------------------------
 Symbolic Z-matrix:
 Charge =  0 Multiplicity = 1

 SCF Done:  E(RHF) =  -1.13346696631     A.U. after    6 cycles
 SCF Done:  E(RHF) =  -1.13349458380     A.U. after    5 cycles
 Optimization completed.
    -- Stationary point found.
 Normal termination of Gaussian 09 at Sun Aug 18 15:11:11 2024.

 ----------------------------------------------------------------
 #P Geom=AllCheck Guess=TCheck SCRF=Check GenChk RHF/CC-pVQZ Freq
 ----------------------------------------------------------------

 hydogen (molecule) with cc-pVQZ basis set
 -----------------------------------------
 Redundant internal coordinates taken from checkpoint file:
 /home/ospite/Desktop/MMfP/Project6/H2/g09/HF/Gau-8059.chk
 Charge =  0 Multiplicity = 1

                         Standard orientation:
 ---------------------------------------------------------------------
 Center     Atomic      Atomic             Coordinates (Angstroms)
 Number     Number       Type             X           Y           Z
 ---------------------------------------------------------------------
      1          1           0        0.000000    0.000000    0.366863
      2          1           0        0.000000    0.000000   -0.366863
 ---------------------------------------------------------------------

 SCF Done:  E(RHF) =  -1.13349458380     A.U. after    1 cycles

 The electronic state is 1-SGG.
 Alpha  occ. eigenvalues --   -0.59683
 Alpha virt. eigenvalues --    0.14844   0.23101   0.51063   0.51063   0.52415
 Alpha virt. eigenvalues --    0.80307   0.81493   0.81493   1.10816   1.30559
 Alpha virt. eigenvalues --    1.58834   1.94320   1.94320   2.15520   2.15520

 Mulliken atomic charges:
              1
     1  H   -0.000000
     2  H   -0.000000
 Sum of Mulliken atomic charges =  -0.00000

 Dipole moment (field-independent basis, Debye):
    X=             -0.0000    Y=             -0.0000    Z=              0.0000  Tot=              0.0000
 Quadrupole moment (field-independent basis, Debye-Ang):
   XX=             -2.0782   YY=             -2.0782   ZZ=             -1.4389
   XY=             -0.0000   XZ=             -0.0000   YZ=              0.0000

  Exact polarizability:   3.401   0.000   3.401  -0.000   0.000   6.400
 Approx polarizability:   2.583  -0.000   2.583  -0.000  -0.000   4.823

                     1
                    SGG
 Frequencies --  4582.3120
 Red. masses --     1.0078
 Frc consts  --    12.4682
 IR Inten    --     0.0000
 Raman Activ --   124.4182

 - Thermochemistry -
 -------------------
 Temperature   298.150 Kelvin.  Pressure   1.00000 Atm.
 Atom     1 has atomic number  1 and mass   1.00783

 Molecular mass:     2.01565 amu.
 Principal axes and moments of inertia in atomic units:
                           1         2         3
     Eigenvalues --     0.00000   0.96877   0.96877
           X           -0.00000   1.00000  -0.00000
           Y            0.00000   0.00000   1.00000
           Z            1.00000   0.00000  -0.00000
 This molecule is a prolate symmetric top.
 Rotational symmetry number  2.
 Rotational temperature (Kelvin)     89.40618
 Rotational constant (GHZ):        1862.924814
 Zero-point vibrational energy      27408.3 (Joules/Mol)
                                    6.55074 (Kcal/Mol)
 Vibrational temperatures:   6592.92
          (Kelvin)

 Zero-point correction=                           0.010439 (Hartree/Particle)
 Thermal correction to Energy=                    0.012800
 Thermal correction to Enthalpy=                  0.013744
 Thermal correction to Gibbs Free Energy=        -0.001025
 Sum of electronic and zero-point Energies=             -1.123055
 Sum of electronic and thermal Energies=                -1.120695
 Sum of electronic and thermal Enthalpies=              -1.119751
 Sum of electronic and thermal Free Energies=           -1.134519

                     E (Thermal)             CV                S
                      KCal/Mol        Cal/Mol-Kelvin    Cal/Mol-Kelvin
 Total                    8.032              4.968             31.083
 Electronic               0.000              0.000              0.000
 Translational            0.889              2.981             28.080
 Rotational               0.592              1.987              3.003
 Vibrational              6.551              0.000              0.000

 Optimization completed.
    -- Stationary point found.
 Normal termination of Gaussian 09 at Sun Aug 18 15:11:21 2024.
