 Gaussian 09, Revision A.02,
 Gaussian 09:  EM64L-G09RevA.02 11-Jun-2009

 ---------------------------------------
 #p hf/cc-pVTZ opt freq pop=full gfinput
 ---------------------------------------

 -----------------------------------------
 hydogen (molecule) with cc-pVTZ basis set
 -----------------------------------------
 Symbolic Z-matrix:
 Charge =  0 Multiplicity = 1

 SCF Done:  E(RHF) =  -1.13296768290     A.U. after    6 cycles
 SCF Done:  E(RHF) =  -1.13298971124     A.U. after    5 cycles
 Optimization completed.
    -- Stationary point found.
 Normal termination of Gaussian 09 at Sat Aug 17 22:44:40 2024.

 ----------------------------------------------------------------
 #P Geom=AllCheck Guess=TCheck SCRF=Check GenChk RHF/CC-pVTZ Freq
 ----------------------------------------------------------------

 hydogen (molecule) with cc-pVTZ basis set
 -----------------------------------------
 Redundant internal coordinates taken from checkpoint file:
 /home/ospite/Desktop/MMfP/Project6/H2/g09/HF/Gau-15467.chk
 Charge =  0 Multiplicity = 1

                         Standard orientation:
 ---------------------------------------------------------------------
 Center     Atomic      Atomic             Coordinates (Angstroms)
 Number     Number       Type             X           Y           Z
 ---------------------------------------------------------------------
      1          1           0        0.000000    0.000000    0.367191
      2          1           0        0.000000    0.000000   -0.367191
 ---------------------------------------------------------------------

 SCF Done:  E(RHF) =  -1.13298971124     A.U. after    1 cycles

 The electronic state is 1-SGG.
 Alpha  occ. eigenvalues --   -0.59643
 Alpha virt. eigenvalues --    0.16804   0.30448   0.64607   0.69333   0.69333
 Alpha virt. eigenvalues --    1.09813   1.12104   1.12104   1.53124   2.33736
 Alpha virt. eigenvalues --    2.40393   3.17618   3.17618   3.41604   3.41604

 Mulliken atomic charges:
              1
     1  H   -0.000000
     2  H   -0.000000
 Sum of Mulliken atomic charges =  -0.00000

 Dipole moment (field-independent basis, Debye):
    X=             -0.0000    Y=              0.0000    Z=              0.0000  Tot=              0.0000
 Quadrupole moment (field-independent basis, Debye-Ang):
   XX=             -2.0810   YY=             -2.0810   ZZ=             -1.4670
   XY=             -0.0000   XZ=             -0.0000   YZ=              0.0000

  Exact polarizability:   2.601   0.000   2.601  -0.000   0.000   6.488
 Approx polarizability:   2.052  -0.000   2.052  -0.000  -0.000   4.891

                     1
                    SGG
 Frequencies --  4587.9722
 Red. masses --     1.0078
 Frc consts  --    12.4990
 IR Inten    --     0.0000
 Raman Activ --   111.5269

 - Thermochemistry -
 -------------------
 Temperature   298.150 Kelvin.  Pressure   1.00000 Atm.
 Atom     1 has atomic number  1 and mass   1.00783

 Molecular mass:     2.01565 amu.
 Principal axes and moments of inertia in atomic units:
                           1         2         3
     Eigenvalues --     0.00000   0.97050   0.97050
           X           -0.00000   1.00000  -0.00000
           Y            0.00000   0.00000   1.00000
           Z            1.00000   0.00000  -0.00000
 This molecule is a prolate symmetric top.
 Rotational symmetry number  2.
 Rotational temperature (Kelvin)     89.24641
 Rotational constant (GHZ):        1859.595759
 Zero-point vibrational energy      27442.2 (Joules/Mol)
                                    6.55884 (Kcal/Mol)
 Vibrational temperatures:   6601.06
          (Kelvin)

 Zero-point correction=                           0.010452 (Hartree/Particle)
 Thermal correction to Energy=                    0.012813
 Thermal correction to Enthalpy=                  0.013757
 Thermal correction to Gibbs Free Energy=        -0.001014
 Sum of electronic and zero-point Energies=             -1.122538
 Sum of electronic and thermal Energies=                -1.120177
 Sum of electronic and thermal Enthalpies=              -1.119233
 Sum of electronic and thermal Free Energies=           -1.134003

                     E (Thermal)             CV                S
                      KCal/Mol        Cal/Mol-Kelvin    Cal/Mol-Kelvin
 Total                    8.040              4.968             31.087
 Electronic               0.000              0.000              0.000
 Translational            0.889              2.981             28.080
 Rotational               0.592              1.987              3.007
 Vibrational              6.559              0.000              0.000

 Optimization completed.
    -- Stationary point found.
 Normal termination of Gaussian 09 at Sat Aug 17 22:44:46 2024.
