 Gaussian 09, Revision A.02,
 Gaussian 09:  EM64L-G09RevA.02 11-Jun-2009

 ---------------------------------------
 #p hf/cc-pVDZ opt freq pop=full gfinput
 ---------------------------------------

 -----------------------------------------
 hydogen (molecule) with cc-pVDZ basis set
 -----------------------------------------
 Symbolic Z-matrix:
 Charge =  0 Multiplicity = 1

 SCF Done:  E(RHF) =  -1.12870009359     A.U. after    5 cycles
 SCF Done:  E(RHF) =  -1.12874600658     A.U. after    4 cycles
 Optimization completed.
    -- Stationary point found.
 Normal termination of Gaussian 09 at Sat Aug 17 22:44:23 2024.

 ----------------------------------------------------------------
 #P Geom=AllCheck Guess=TCheck SCRF=Check GenChk RHF/CC-pVDZ Freq
 ----------------------------------------------------------------

 hydogen (molecule) with cc-pVDZ basis set
 -----------------------------------------
 Redundant internal coordinates taken from checkpoint file:
 /home/ospite/Desktop/MMfP/Project6/H2/g09/HF/Gau-15456.chk
 Charge =  0 Multiplicity = 1

                         Standard orientation:
 ---------------------------------------------------------------------
 Center     Atomic      Atomic             Coordinates (Angstroms)
 Number     Number       Type             X           Y           Z
 ---------------------------------------------------------------------
      1          1           0        0.000000    0.000000    0.374173
      2          1           0        0.000000    0.000000   -0.374173
 ---------------------------------------------------------------------

 SCF Done:  E(RHF) =  -1.12874600658     A.U. after    1 cycles

 The electronic state is 1-SGG.
 Alpha  occ. eigenvalues --   -0.58990
 Alpha virt. eigenvalues --    0.19583   0.48133   0.93137   1.29199   1.29199
 Alpha virt. eigenvalues --    1.94892   2.03785   2.03785   3.56021

 Mulliken atomic charges:
              1
     1  H    0.000000
     2  H    0.000000
 Sum of Mulliken atomic charges =   0.00000

 Dipole moment (field-independent basis, Debye):
    X=              0.0000    Y=              0.0000    Z=              0.0000  Tot=              0.0000
 Quadrupole moment (field-independent basis, Debye-Ang):
   XX=             -2.0462   YY=             -2.0462   ZZ=             -1.4408
   XY=             -0.0000   XZ=             -0.0000   YZ=              0.0000

  Exact polarizability:   1.168   0.000   1.168  -0.000   0.000   6.528
 Approx polarizability:   0.994  -0.000   0.994  -0.000  -0.000   4.941

                     1
                    SGG
 Frequencies --  4578.3587
 Red. masses --     1.0078
 Frc consts  --    12.4467
 IR Inten    --     0.0000
 Raman Activ --   111.5712

 - Thermochemistry -
 -------------------
 Temperature   298.150 Kelvin.  Pressure   1.00000 Atm.
 Atom     1 has atomic number  1 and mass   1.00783

 Molecular mass:     2.01565 amu.
 Principal axes and moments of inertia in atomic units:
                           1         2         3
     Eigenvalues --     0.00000   1.00776   1.00776
           X           -0.00000   1.00000  -0.00000
           Y            0.00000   0.00000   1.00000
           Z            1.00000   0.00000  -0.00000
 This molecule is a prolate symmetric top.
 Rotational symmetry number  2.
 Rotational temperature (Kelvin)     85.94684
 Rotational constant (GHZ):        1790.843708
 Zero-point vibrational energy      27384.7 (Joules/Mol)
                                    6.54509 (Kcal/Mol)
 Vibrational temperatures:   6587.23
          (Kelvin)

 Zero-point correction=                           0.010430 (Hartree/Particle)
 Thermal correction to Energy=                    0.012791
 Thermal correction to Enthalpy=                  0.013735
 Thermal correction to Gibbs Free Energy=        -0.001071
 Sum of electronic and zero-point Energies=             -1.118316
 Sum of electronic and thermal Energies=                -1.115955
 Sum of electronic and thermal Enthalpies=              -1.115011
 Sum of electronic and thermal Free Energies=           -1.129817

                     E (Thermal)             CV                S
                      KCal/Mol        Cal/Mol-Kelvin    Cal/Mol-Kelvin
 Total                    8.026              4.968             31.162
 Electronic               0.000              0.000              0.000
 Translational            0.889              2.981             28.080
 Rotational               0.592              1.987              3.082
 Vibrational              6.545              0.000              0.000

 Optimization completed.
    -- Stationary point found.
 Normal termination of Gaussian 09 at Sat Aug 17 22:44:26 2024.
