 Gaussian 09, Revision A.02,
 Gaussian 09:  EM64L-G09RevA.02 11-Jun-2009

 ------------------------
 #p B3LYP/6-31+g(d,p) opt
 ------------------------

 --------
 h3o+ gas
 --------
 Symbolic Z-matrix:
 Charge =  1 Multiplicity = 1

 SCF Done:  E(RB3LYP) =  -76.7033556317     A.U. after    9 cycles
 SCF Done:  E(RB3LYP) =  -76.7076373968     A.U. after    9 cycles
 SCF Done:  E(RB3LYP) =  -76.7077445396     A.U. after    8 cycles
 SCF Done:  E(RB3LYP) =  -76.7077664287     A.U. after    7 cycles
 SCF Done:  E(RB3LYP) =  -76.7077678108     A.U. after    6 cycles
 Optimization completed.
    -- Stationary point found.

                         Standard orientation:
 ---------------------------------------------------------------------
 Center     Atomic      Atomic             Coordinates (Angstroms)
 Number     Number       Type             X           Y           Z
 ---------------------------------------------------------------------
      1          8           0       -0.000000   -0.000000    0.068191
      2          1           0        0.000000    0.950025   -0.181843
      3          1           0       -0.822746   -0.475013   -0.181843
      4          1           0        0.822746   -0.475013   -0.181843
 ---------------------------------------------------------------------

 The electronic state is 1-A1.
 Alpha  occ. eigenvalues --  -19.59572  -1.45408  -0.94336  -0.94336  -0.74279
 Alpha virt. eigenvalues --   -0.27314  -0.16773  -0.16773  -0.09247  -0.07110
 Alpha virt. eigenvalues --   -0.07110  -0.01564   0.57613   0.57613   0.68500
 Alpha virt. eigenvalues --    0.71909   0.71909   0.76171   0.91944   1.06770

 Mulliken atomic charges:
              1
     1  O   -0.471948
     2  H    0.490649
     3  H    0.490649
     4  H    0.490649
 Sum of Mulliken atomic charges =   1.00000

 Dipole moment (field-independent basis, Debye):
    X=              0.0000    Y=              0.0000    Z=             -1.4366  Tot=              1.4366
 Quadrupole moment (field-independent basis, Debye-Ang):
   XX=             -2.4125   YY=             -2.4125   ZZ=             -6.3944
   XY=              0.0000   XZ=             -0.0000   YZ=             -0.0000

 Normal termination of Gaussian 09 at Tue Sep 17 13:09:17 2024.
