 Gaussian 09, Revision A.02,
 Gaussian 09:  EM64L-G09RevA.02 11-Jun-2009

 ------------------------------------------------------
 #p B3LYP/6-31+g(d,p) opt scrf=(smd,solvent=water) freq
 ------------------------------------------------------

 --------
 h3o+ gas
 --------
 Symbolic Z-matrix:
 Charge =  1 Multiplicity = 1

 SCF Done:  E(RB3LYP) =  -76.8597624362     A.U. after    7 cycles
 SCF Done:  E(RB3LYP) =  -76.8622078019     A.U. after    9 cycles
 SCF Done:  E(RB3LYP) =  -76.8622839117     A.U. after    7 cycles
 SCF Done:  E(RB3LYP) =  -76.8622763980     A.U. after    9 cycles
 SCF Done:  E(RB3LYP) =  -76.8622787520     A.U. after    7 cycles
 Optimization completed.
    -- Stationary point found.
 Normal termination of Gaussian 09 at Tue Sep 17 19:16:15 2024.

 ----------------------------------------------------------------------
 #P Geom=AllCheck Guess=TCheck SCRF=Check GenChk RB3LYP/6-31+G(d,p) Fre
 q
 ----------------------------------------------------------------------

 h3o+ gas
 --------
 Redundant internal coordinates taken from checkpoint file:
 /home/ospite/Desktop/MMfP/Project10/pKa_calcualtion/H3O+/Gau-10986.chk
 Charge =  1 Multiplicity = 1

                         Standard orientation:
 ---------------------------------------------------------------------
 Center     Atomic      Atomic             Coordinates (Angstroms)
 Number     Number       Type             X           Y           Z
 ---------------------------------------------------------------------
      1          8           0       -0.000187    0.000170   -0.091375
      2          1           0        0.504233   -0.771817    0.243191
      3          1           0       -0.919598   -0.050880    0.244011
      4          1           0        0.416865    0.821336    0.243796
 ---------------------------------------------------------------------

 SCF Done:  E(RB3LYP) =  -76.8622787520     A.U. after    1 cycles

 The electronic state is 1-A.
 Alpha  occ. eigenvalues --  -19.30696  -1.16753  -0.64335  -0.64285  -0.46964
 Alpha virt. eigenvalues --    0.00474   0.10406   0.10423   0.13422   0.17706
 Alpha virt. eigenvalues --    0.17741   0.24762   0.85284   0.85340   0.98422
 Alpha virt. eigenvalues --    0.99618   0.99636   1.06087   1.21234   1.34307

 Mulliken atomic charges:
              1
     1  O   -0.507556
     2  H    0.502784
     3  H    0.502386
     4  H    0.502386
 Sum of Mulliken atomic charges =   1.00000

 Dipole moment (field-independent basis, Debye):
    X=              0.0041    Y=             -0.0057    Z=              2.1021  Tot=              2.1021
 Quadrupole moment (field-independent basis, Debye-Ang):
   XX=             -2.6828   YY=             -2.6846   ZZ=             -6.2250
   XY=              0.0003   XZ=             -0.0006   YZ=              0.0001

  Exact polarizability:   6.922  -0.001   6.925   0.001  -0.002   5.403
 Approx polarizability:   7.229  -0.002   7.227   0.002  -0.002   5.348

                     1                      2                      3
                     A                      A                      A
 Frequencies --  1010.4885              1628.0652              1654.9386
 Red. masses --     1.1633                 1.0615                 1.0624
 Frc consts  --     0.6999                 1.6578                 1.7143
 IR Inten    --   580.5164               145.7584               148.5825

                     4                      5                      6
                     A                      A                      A
 Frequencies --  3608.9825              3693.7808              3702.1593
 Red. masses --     1.0237                 1.0848                 1.0844
 Frc consts  --     7.8560                 8.7204                 8.7569
 IR Inten    --    80.6781               523.9103               521.8400

 - Thermochemistry -
 -------------------
 Temperature   298.150 Kelvin.  Pressure   1.00000 Atm.
 Atom     1 has atomic number  8 and mass  15.99491

 Molecular mass:    19.01839 amu.
 Principal axes and moments of inertia in atomic units:
                           1         2         3
     Eigenvalues --     5.60043   5.60333   9.16513
           X            1.00000   0.00019  -0.00008
           Y           -0.00019   1.00000   0.00007
           Z            0.00008  -0.00007   1.00000
 This molecule is an asymmetric top.
 Rotational symmetry number  1.
 Rotational temperatures (Kelvin)     15.46555    15.45757     9.45036
 Rotational constants (GHZ):         322.25020   322.08379   196.91379
 Zero-point vibrational energy      91504.8 (Joules/Mol)
                                   21.87018 (Kcal/Mol)
 Vibrational temperatures:   1453.87  2342.42  2381.08  5192.51  5314.52
          (Kelvin)           5326.57

 Zero-point correction=                           0.034852 (Hartree/Particle)
 Thermal correction to Energy=                    0.037726
 Thermal correction to Enthalpy=                  0.038670
 Thermal correction to Gibbs Free Energy=         0.015720
 Sum of electronic and zero-point Energies=            -76.827426
 Sum of electronic and thermal Energies=               -76.824553
 Sum of electronic and thermal Enthalpies=             -76.823609
 Sum of electronic and thermal Free Energies=          -76.846558

                     E (Thermal)             CV                S
                      KCal/Mol        Cal/Mol-Kelvin    Cal/Mol-Kelvin
 Total                   23.673              6.418             48.301
 Electronic               0.000              0.000              0.000
 Translational            0.889              2.981             34.771
 Rotational               0.889              2.981             13.428
 Vibrational             21.896              0.457              0.103

 Optimization completed.
    -- Stationary point found.
 Normal termination of Gaussian 09 at Tue Sep 17 19:16:44 2024.
