 Gaussian 09, Revision A.02,
 Gaussian 09:  EM64L-G09RevA.02 11-Jun-2009

 ---------------------------------------------
 #p B3LYP/6-31g(d,p) opt freq pop=full gfinput
 ---------------------------------------------

 --
 H2
 --
 Symbolic Z-matrix:
 Charge =  0 Multiplicity = 1

 SCF Done:  E(RB3LYP) =  -1.16949081217     A.U. after    7 cycles
 SCF Done:  E(RB3LYP) =  -1.17849595935     A.U. after    7 cycles
 SCF Done:  E(RB3LYP) =  -1.17853930741     A.U. after    4 cycles
 Optimization completed.
    -- Stationary point found.
 Normal termination of Gaussian 09 at Wed Aug 21 02:34:02 2024.

 ----------------------------------------------------------------------
 #P Geom=AllCheck Guess=TCheck SCRF=Check GenChk RB3LYP/6-31G(d,p) Freq
 ----------------------------------------------------------------------

 H2
 --
 Redundant internal coordinates taken from checkpoint file:
 h2.chk
 Charge =  0 Multiplicity = 1

                         Standard orientation:
 ---------------------------------------------------------------------
 Center     Atomic      Atomic             Coordinates (Angstroms)
 Number     Number       Type             X           Y           Z
 ---------------------------------------------------------------------
      1          1           0        0.000000    0.000000    0.371499
      2          1           0        0.000000    0.000000   -0.371499
 ---------------------------------------------------------------------

 SCF Done:  E(RB3LYP) =  -1.17853930741     A.U. after    1 cycles

 The electronic state is 1-SGG.
 Alpha  occ. eigenvalues --   -0.43153
 Alpha virt. eigenvalues --    0.10091   0.57708   1.03592   1.67473   1.67473
 Alpha virt. eigenvalues --    2.37849   2.61544   2.61544   4.15186

 Mulliken atomic charges:
              1
     1  H   -0.000000
     2  H   -0.000000
 Sum of Mulliken atomic charges =  -0.00000

 Dipole moment (field-independent basis, Debye):
    X=             -0.0000    Y=              0.0000    Z=             -0.0000  Tot=              0.0000
 Quadrupole moment (field-independent basis, Debye-Ang):
   XX=             -2.0294   YY=             -2.0294   ZZ=             -1.5077
   XY=             -0.0000   XZ=             -0.0000   YZ=              0.0000

  Exact polarizability:   0.582  -0.000   0.582   0.000  -0.000   6.368
 Approx polarizability:   0.599  -0.000   0.599  -0.000  -0.000   7.768

                     1
                    SGG
 Frequencies --  4462.7116
 Red. masses --     1.0078
 Frc consts  --    11.8259
 IR Inten    --     0.0000

 - Thermochemistry -
 -------------------
 Temperature   298.150 Kelvin.  Pressure   1.00000 Atm.
 Atom     1 has atomic number  1 and mass   1.00783

 Molecular mass:     2.01565 amu.
 Principal axes and moments of inertia in atomic units:
                           1         2         3
     Eigenvalues --     0.00000   0.99341   0.99341
           X           -0.00000   1.00000  -0.00000
           Y            0.00000   0.00000   1.00000
           Z            1.00000   0.00000  -0.00000
 This molecule is a prolate symmetric top.
 Rotational symmetry number  2.
 Rotational temperature (Kelvin)     87.18825
 Rotational constant (GHZ):        1816.710494
 Zero-point vibrational energy      26692.9 (Joules/Mol)
                                    6.37977 (Kcal/Mol)
 Vibrational temperatures:   6420.84
          (Kelvin)

 Zero-point correction=                           0.010167 (Hartree/Particle)
 Thermal correction to Energy=                    0.012527
 Thermal correction to Enthalpy=                  0.013471
 Thermal correction to Gibbs Free Energy=        -0.001321
 Sum of electronic and zero-point Energies=             -1.168373
 Sum of electronic and thermal Energies=                -1.166012
 Sum of electronic and thermal Enthalpies=              -1.165068
 Sum of electronic and thermal Free Energies=           -1.179860

                     E (Thermal)             CV                S
                      KCal/Mol        Cal/Mol-Kelvin    Cal/Mol-Kelvin
 Total                    7.861              4.968             31.133
 Electronic               0.000              0.000              0.000
 Translational            0.889              2.981             28.080
 Rotational               0.592              1.987              3.053
 Vibrational              6.380              0.000              0.000

 Optimization completed.
    -- Stationary point found.
 Normal termination of Gaussian 09 at Wed Aug 21 02:34:04 2024.
