 Gaussian 09, Revision A.02,
 Gaussian 09:  EM64L-G09RevA.02 11-Jun-2009

 ---------------------------------------------
 #p B3LYP/6-31g(d,p) opt freq pop=full gfinput
 ---------------------------------------------

 --
 HF
 --
 Symbolic Z-matrix:
 Charge =  0 Multiplicity = 1

 SCF Done:  E(RB3LYP) =  -100.426271932     A.U. after    9 cycles
 SCF Done:  E(RB3LYP) =  -100.427459254     A.U. after    9 cycles
 SCF Done:  E(RB3LYP) =  -100.427461600     A.U. after    6 cycles
 Optimization completed.
    -- Stationary point found.
 Normal termination of Gaussian 09 at Wed Aug 21 02:34:42 2024.

 ----------------------------------------------------------------------
 #P Geom=AllCheck Guess=TCheck SCRF=Check GenChk RB3LYP/6-31G(d,p) Freq
 ----------------------------------------------------------------------

 HF
 --
 Redundant internal coordinates taken from checkpoint file:
 hf.chk
 Charge =  0 Multiplicity = 1

                         Standard orientation:
 ---------------------------------------------------------------------
 Center     Atomic      Atomic             Coordinates (Angstroms)
 Number     Number       Type             X           Y           Z
 ---------------------------------------------------------------------
      1          9           0        0.000000    0.000000    0.092538
      2          1           0        0.000000    0.000000   -0.832840
 ---------------------------------------------------------------------

 SCF Done:  E(RB3LYP) =  -100.427461600     A.U. after    1 cycles

 The electronic state is 1-SG.
 Alpha  occ. eigenvalues --  -24.66310  -1.16884  -0.51803  -0.37691  -0.37691
 Alpha virt. eigenvalues --    0.06686   0.76451   1.08387   1.17509   1.17509
 Alpha virt. eigenvalues --    1.42688   1.61934   1.61934   1.86997   1.86997
 Alpha virt. eigenvalues --    2.49923   2.71684   2.71684   3.62867   3.71523

 Mulliken atomic charges:
              1
     1  F   -0.358072
     2  H    0.358072
 Sum of Mulliken atomic charges =   0.00000

 Dipole moment (field-independent basis, Debye):
    X=              0.0000    Y=              0.0000    Z=             -1.8277  Tot=              1.8277
 Quadrupole moment (field-independent basis, Debye-Ang):
   XX=             -5.3698   YY=             -5.3698   ZZ=             -3.4534
   XY=              0.0000   XZ=              0.0000   YZ=              0.0000

  Exact polarizability:   2.016  -0.000   2.016  -0.000   0.000   4.645
 Approx polarizability:   2.263  -0.000   2.263  -0.000  -0.000   5.958

                     1
                    SG
 Frequencies --  4085.1720
 Red. masses --     1.0583
 Frc consts  --    10.4060
 IR Inten    --    61.0572

 - Thermochemistry -
 -------------------
 Temperature   298.150 Kelvin.  Pressure   1.00000 Atm.
 Atom     1 has atomic number  9 and mass  18.99840

 Molecular mass:    20.00623 amu.
 Principal axes and moments of inertia in atomic units:
                           1         2         3
     Eigenvalues --     0.00000   2.92666   2.92666
           X            0.00000  -0.00000   1.00000
           Y            0.00000   1.00000   0.00000
           Z            1.00000   0.00000   0.00000
 This molecule is a prolate symmetric top.
 Rotational symmetry number  1.
 Rotational temperature (Kelvin)     29.59473
 Rotational constant (GHZ):         616.654753
 Zero-point vibrational energy      24434.8 (Joules/Mol)
                                    5.84005 (Kcal/Mol)
 Vibrational temperatures:   5877.64
          (Kelvin)

 Zero-point correction=                           0.009307 (Hartree/Particle)
 Thermal correction to Energy=                    0.011667
 Thermal correction to Enthalpy=                  0.012611
 Thermal correction to Gibbs Free Energy=        -0.007106
 Sum of electronic and zero-point Energies=           -100.418155
 Sum of electronic and thermal Energies=              -100.415794
 Sum of electronic and thermal Enthalpies=            -100.414850
 Sum of electronic and thermal Free Energies=         -100.434568

                     E (Thermal)             CV                S
                      KCal/Mol        Cal/Mol-Kelvin    Cal/Mol-Kelvin
 Total                    7.321              4.968             41.499
 Electronic               0.000              0.000              0.000
 Translational            0.889              2.981             34.922
 Rotational               0.592              1.987              6.578
 Vibrational              5.840              0.000              0.000

 Optimization completed.
    -- Stationary point found.
 Normal termination of Gaussian 09 at Wed Aug 21 02:34:47 2024.
