 Gaussian 09, Revision A.02,
 Gaussian 09:  EM64L-G09RevA.02 11-Jun-2009

 ---------------------------------------------
 #p B3LYP/6-31g(d,p) opt freq pop=full gfinput
 ---------------------------------------------

 --
 H2
 --
 Symbolic Z-matrix:
 Charge =  0 Multiplicity = 1

 SCF Done:  E(RB3LYP) =  -107.386240105     A.U. after   11 cycles
 SCF Done:  E(RB3LYP) =  -107.402395437     A.U. after    8 cycles
 SCF Done:  E(RB3LYP) =  -107.416987333     A.U. after    8 cycles
 SCF Done:  E(RB3LYP) =  -107.417598726     A.U. after    7 cycles
 SCF Done:  E(RB3LYP) =  -107.417599821     A.U. after    6 cycles
 Optimization completed.
    -- Stationary point found.
 Normal termination of Gaussian 09 at Tue Aug 20 22:46:05 2024.

 ----------------------------------------------------------------------
 #P Geom=AllCheck Guess=TCheck SCRF=Check GenChk RB3LYP/6-31G(d,p) Freq
 ----------------------------------------------------------------------

 H2
 --
 Redundant internal coordinates taken from checkpoint file:
 /home/ospite/Desktop/MMfP/Project8/gaussian_simulations/Gau-6490.chk
 Charge =  0 Multiplicity = 1

                         Standard orientation:
 ---------------------------------------------------------------------
 Center     Atomic      Atomic             Coordinates (Angstroms)
 Number     Number       Type             X           Y           Z
 ---------------------------------------------------------------------
      1          3           0        0.000000    0.000000   -1.163540
      2          9           0        0.000000    0.000000    0.387847
 ---------------------------------------------------------------------

 SCF Done:  E(RB3LYP) =  -107.417599821     A.U. after    1 cycles

 The electronic state is 1-SG.
 Alpha  occ. eigenvalues --  -24.53160  -1.98531  -0.98468  -0.27746  -0.26401
 Alpha  occ. eigenvalues --   -0.26401
 Alpha virt. eigenvalues --   -0.04924   0.02420   0.02420   0.05890   0.12972
 Alpha virt. eigenvalues --    0.14949   0.14949   0.27321   0.47239   0.47242
 Alpha virt. eigenvalues --    0.54529   0.54529   0.61896   1.09120   1.39289

 Mulliken atomic charges:
              1
     1  Li   0.525836
     2  F   -0.525836
 Sum of Mulliken atomic charges =   0.00000

 Dipole moment (field-independent basis, Debye):
    X=              0.0000    Y=              0.0000    Z=             -5.5880  Tot=              5.5880
 Quadrupole moment (field-independent basis, Debye-Ang):
   XX=             -7.5698   YY=             -7.5698   ZZ=             -1.3120
   XY=              0.0000   XZ=              0.0000   YZ=              0.0000

  Exact polarizability:   8.657  -0.000   8.657   0.000  -0.000   8.857
 Approx polarizability:   8.405  -0.000   8.405  -0.000  -0.000  11.527

                     1
                    SG
 Frequencies --  1007.0989
 Red. masses --     8.4540
 Frc consts  --     5.0519
 IR Inten    --    97.4386

 - Thermochemistry -
 -------------------
 Temperature   298.150 Kelvin.  Pressure   1.00000 Atm.
 Atom     1 has atomic number  3 and mass   7.01600

 Molecular mass:    26.01441 amu.
 Principal axes and moments of inertia in atomic units:
                           1         2         3
     Eigenvalues --     0.00000  44.03836  44.03836
           X            0.00000  -0.00000   1.00000
           Y            0.00000   1.00000   0.00000
           Z            1.00000   0.00000   0.00000
 This molecule is a prolate symmetric top.
 Rotational symmetry number  1.
 Rotational temperature (Kelvin)      1.96678
 Rotational constant (GHZ):          40.981117
 Zero-point vibrational energy       6023.8 (Joules/Mol)
                                    1.43972 (Kcal/Mol)
 Vibrational temperatures:   1448.99
          (Kelvin)

 Zero-point correction=                           0.002294 (Hartree/Particle)
 Thermal correction to Energy=                    0.004691
 Thermal correction to Enthalpy=                  0.005635
 Thermal correction to Gibbs Free Energy=        -0.017058
 Sum of electronic and zero-point Energies=           -107.415305
 Sum of electronic and thermal Energies=              -107.412909
 Sum of electronic and thermal Enthalpies=            -107.411965
 Sum of electronic and thermal Free Energies=         -107.434658

                     E (Thermal)             CV                S
                      KCal/Mol        Cal/Mol-Kelvin    Cal/Mol-Kelvin
 Total                    2.943              5.338             47.761
 Electronic               0.000              0.000              0.000
 Translational            0.889              2.981             35.704
 Rotational               0.592              1.987             11.965
 Vibrational              1.462              0.370              0.091

 Optimization completed.
    -- Stationary point found.
 Normal termination of Gaussian 09 at Tue Aug 20 22:46:12 2024.
