 Gaussian 09, Revision A.02,
 Gaussian 09:  EM64L-G09RevA.02 11-Jun-2009

 ---------------------------------------------
 #p B3LYP/6-31g(d,p) opt freq pop=full gfinput
 ---------------------------------------------

 -------
 benzene
 -------
 Symbolic Z-matrix:
 Charge =  0 Multiplicity = 1

 SCF Done:  E(RB3LYP) =  -232.257235862     A.U. after   12 cycles
 SCF Done:  E(RB3LYP) =  -232.258212087     A.U. after   11 cycles
 Optimization completed.
    -- Stationary point found.
 Normal termination of Gaussian 09 at Wed Aug 21 00:25:13 2024.

 ----------------------------------------------------------------------
 #P Geom=AllCheck Guess=TCheck SCRF=Check GenChk RB3LYP/6-31G(d,p) Freq
 ----------------------------------------------------------------------

 benzene
 -------
 Redundant internal coordinates taken from checkpoint file:
 benzene.chk
 Charge =  0 Multiplicity = 1

                         Standard orientation:
 ---------------------------------------------------------------------
 Center     Atomic      Atomic             Coordinates (Angstroms)
 Number     Number       Type             X           Y           Z
 ---------------------------------------------------------------------
      1          6           0       -0.000000    1.209190    0.698051
      2          6           0        0.000000    1.209319   -0.698212
      3          1           0       -0.000000    2.150063    1.241228
      4          1           0        0.000000    2.150130   -1.241473
      5          6           0       -0.000000    0.000000    1.396195
      6          1           0       -0.000000    0.000000    2.482606
      7          6           0       -0.000000   -1.209190    0.698051
      8          1           0       -0.000000   -2.150063    1.241228
      9          6           0       -0.000000   -1.209319   -0.698212
     10          1           0       -0.000000   -2.150130   -1.241473
     11          6           0        0.000000    0.000000   -1.395852
     12          1           0        0.000000    0.000000   -2.482242
 ---------------------------------------------------------------------

 SCF Done:  E(RB3LYP) =  -232.258212087     A.U. after    1 cycles

 The electronic state is 1-A1.
 Alpha  occ. eigenvalues --  -10.18798 -10.18772 -10.18771 -10.18717 -10.18716
 Alpha  occ. eigenvalues --  -10.18689  -0.84677  -0.74004  -0.74002  -0.59737
 Alpha  occ. eigenvalues --   -0.59735  -0.51788  -0.45813  -0.43855  -0.41656
 Alpha  occ. eigenvalues --   -0.41650  -0.35999  -0.33964  -0.33954  -0.24692
 Alpha  occ. eigenvalues --   -0.24692
 Alpha virt. eigenvalues --    0.00264   0.00268   0.09105   0.14506   0.14507
 Alpha virt. eigenvalues --    0.16189   0.18180   0.18181   0.19064   0.30068
 Alpha virt. eigenvalues --    0.30070   0.31817   0.31824   0.46725   0.52698

 Mulliken atomic charges:
              1
     1  C   -0.084542
     2  C   -0.084319
     3  H    0.084431
     4  H    0.084482
     5  C   -0.084400
     6  H    0.084460
     7  C   -0.084542
     8  H    0.084431
     9  C   -0.084319
    10  H    0.084482
    11  C   -0.084550
    12  H    0.084388
 Sum of Mulliken atomic charges =  -0.00000

 Dipole moment (field-independent basis, Debye):
    X=             -0.0000    Y=             -0.0000    Z=             -0.0001  Tot=              0.0001
 Quadrupole moment (field-independent basis, Debye-Ang):
   XX=            -38.5338   YY=            -31.4713   ZZ=            -31.4762
   XY=              0.0000   XZ=              0.0000   YZ=              0.0000

  Exact polarizability:  21.425  -0.000  71.794  -0.000   0.000  71.783
 Approx polarizability:  32.013   0.000 119.450   0.000  -0.000 119.418

                     1                      2                      3
                    A2                     B1                     B2
 Frequencies --   414.1089               414.8388               621.1912
 Red. masses --     2.9445                 2.9470                 6.0764
 Frc consts  --     0.2975                 0.2988                 1.3815
 IR Inten    --     0.0000                 0.0000                 0.0000

                     4                      5                      6
                    A1                     B1                     B1
 Frequencies --   621.2117               694.9090               718.2539
 Red. masses --     6.0757                 1.0848                 3.8796
 Frc consts  --     1.3814                 0.3087                 1.1792
 IR Inten    --     0.0000                74.2233                 0.0012

                     7                      8                      9
                    A2                     B1                     A2
 Frequencies --   865.1060               865.9667               974.5619
 Red. masses --     1.2476                 1.2476                 1.3588
 Frc consts  --     0.5501                 0.5512                 0.7604
 IR Inten    --     0.0000                 0.0000                 0.0000

                    10                     11                     12
                    B1                     B1                     A1
 Frequencies --   975.1501              1013.5303              1017.8771
 Red. masses --     1.3582                 1.2228                 6.5560
 Frc consts  --     0.7610                 0.7401                 4.0020
 IR Inten    --     0.0003                 0.0000                 0.0000

                    13                     14                     15
                    A1                     B2                     A1
 Frequencies --  1019.8538              1066.7127              1067.0282
 Red. masses --     6.0146                 1.6860                 1.6868
 Frc consts  --     3.6858                 1.1304                 1.1315
 IR Inten    --     0.0000                 3.3795                 3.3761

                    16                     17                     18
                    B2                     B2                     A1
 Frequencies --  1179.9655              1202.7883              1202.8348
 Red. masses --     1.0806                 1.1342                 1.1345
 Frc consts  --     0.8865                 0.9668                 0.9671
 IR Inten    --     0.0000                 0.0000                 0.0000

                    19                     20                     21
                    B2                     B2                     B2
 Frequencies --  1356.2089              1380.9819              1524.6863
 Red. masses --     6.6589                 1.2476                 2.0354
 Frc consts  --     7.2162                 1.4019                 2.7878
 IR Inten    --     0.0000                 0.0000                 6.6365

                    22                     23                     24
                    A1                     A1                     B2
 Frequencies --  1525.0217              1653.0894              1653.3840
 Red. masses --     2.0344                 5.3866                 5.3928
 Frc consts  --     2.7876                 8.6728                 8.6858
 IR Inten    --     6.6360                 0.0000                 0.0000

                    25                     26                     27
                    A1                     A1                     B2
 Frequencies --  3172.1098              3181.6463              3181.7263
 Red. masses --     1.0834                 1.0876                 1.0876
 Frc consts  --     6.4228                 6.4865                 6.4870
 IR Inten    --     0.0002                 0.0001                 0.0020

                    28                     29                     30
                    B2                     A1                     A1
 Frequencies --  3197.3693              3197.3755              3207.9725
 Red. masses --     1.0953                 1.0953                 1.0997
 Frc consts  --     6.5974                 6.5974                 6.6681
 IR Inten    --    46.6512                46.7438                 0.0018

 - Thermochemistry -
 -------------------
 Temperature   298.150 Kelvin.  Pressure   1.00000 Atm.
 Atom     1 has atomic number  6 and mass  12.00000

 Molecular mass:    78.04695 amu.
 Principal axes and moments of inertia in atomic units:
                           1         2         3
     Eigenvalues --   317.11449 317.20554 634.32003
           X            0.00000   0.00000   1.00000
           Y            1.00000   0.00000  -0.00000
           Z            0.00000   1.00000   0.00000
 This molecule is an asymmetric top.
 Rotational symmetry number  2.
 Rotational temperatures (Kelvin)      0.27313     0.27305     0.13655
 Rotational constants (GHZ):           5.69113     5.68950     2.84516
 Zero-point vibrational energy     264180.1 (Joules/Mol)
                                   63.14055 (Kcal/Mol)
 Warning -- explicit consideration of   2 degrees of freedom as
           vibrations may cause significant error
 Vibrational temperatures:    595.81   596.86   893.75   893.78   999.82
          (Kelvin)           1033.41  1244.69  1245.93  1402.18  1403.02
                             1458.24  1464.50  1467.34  1534.76  1535.21
                             1697.71  1730.54  1730.61  1951.28  1986.92
                             2193.68  2194.16  2378.42  2378.85  4563.95
                             4577.67  4577.79  4600.30  4600.30  4615.55

 Zero-point correction=                           0.100621 (Hartree/Particle)
 Thermal correction to Energy=                    0.105009
 Thermal correction to Enthalpy=                  0.105953
 Thermal correction to Gibbs Free Energy=         0.073814
 Sum of electronic and zero-point Energies=           -232.157591
 Sum of electronic and thermal Energies=              -232.153203
 Sum of electronic and thermal Enthalpies=            -232.152259
 Sum of electronic and thermal Free Energies=         -232.184398

                     E (Thermal)             CV                S
                      KCal/Mol        Cal/Mol-Kelvin    Cal/Mol-Kelvin
 Total                   65.894             17.136             67.643
 Electronic               0.000              0.000              0.000
 Translational            0.889              2.981             38.979
 Rotational               0.889              2.981             24.282
 Vibrational             64.117             11.175              4.382
 Vibration     1          0.778              1.440              0.912
 Vibration     2          0.778              1.438              0.910

 Optimization completed.
    -- Stationary point found.
 Normal termination of Gaussian 09 at Wed Aug 21 00:35:02 2024.
