 Gaussian 09, Revision A.02,
 Gaussian 09:  EM64L-G09RevA.02 11-Jun-2009

 ---------------------------------------------
 #p B3LYP/6-31g(d,p) opt freq pop=full gfinput
 ---------------------------------------------

 ------
 ethane
 ------
 Symbolic Z-matrix:
 Charge =  0 Multiplicity = 1

 SCF Done:  E(RB3LYP) =  -79.8367422380     A.U. after    9 cycles
 SCF Done:  E(RB3LYP) =  -79.8386722749     A.U. after    9 cycles
 SCF Done:  E(RB3LYP) =  -79.8387353109     A.U. after    6 cycles
 SCF Done:  E(RB3LYP) =  -79.8387382438     A.U. after    6 cycles
 Optimization completed.
    -- Stationary point found.
 Normal termination of Gaussian 09 at Wed Aug 21 02:06:01 2024.

 ----------------------------------------------------------------------
 #P Geom=AllCheck Guess=TCheck SCRF=Check GenChk RB3LYP/6-31G(d,p) Freq
 ----------------------------------------------------------------------

 ethane
 ------
 Redundant internal coordinates taken from checkpoint file:
 ethane.chk
 Charge =  0 Multiplicity = 1

                         Standard orientation:
 ---------------------------------------------------------------------
 Center     Atomic      Atomic             Coordinates (Angstroms)
 Number     Number       Type             X           Y           Z
 ---------------------------------------------------------------------
      1          6           0       -0.000000    0.000000    0.765228
      2          1           0       -0.000000    1.019860    1.163903
      3          6           0       -0.000000   -0.000000   -0.765228
      4          1           0        0.883224   -0.509930    1.163903
      5          1           0       -0.883224   -0.509930    1.163903
      6          1           0       -0.000000   -1.019860   -1.163903
      7          1           0       -0.883224    0.509930   -1.163903
      8          1           0        0.883224    0.509930   -1.163903
 ---------------------------------------------------------------------

 SCF Done:  E(RB3LYP) =  -79.8387382438     A.U. after    1 cycles

 The electronic state is 1-A1G.
 Alpha  occ. eigenvalues --  -10.17259 -10.17238  -0.74763  -0.61191  -0.42947
 Alpha  occ. eigenvalues --   -0.42947  -0.36293  -0.33924  -0.33924
 Alpha virt. eigenvalues --    0.10496   0.15622   0.16402   0.16402   0.19004
 Alpha virt. eigenvalues --    0.19004   0.24185   0.50810   0.53954   0.53954
 Alpha virt. eigenvalues --    0.61903   0.61903   0.66593   0.86653   0.86653

 Mulliken atomic charges:
              1
     1  C   -0.314672
     2  H    0.104891
     3  C   -0.314672
     4  H    0.104891
     5  H    0.104891
     6  H    0.104891
     7  H    0.104891
     8  H    0.104891
 Sum of Mulliken atomic charges =  -0.00000

 Dipole moment (field-independent basis, Debye):
    X=             -0.0000    Y=             -0.0000    Z=             -0.0000  Tot=              0.0000
 Quadrupole moment (field-independent basis, Debye-Ang):
   XX=            -14.7232   YY=            -14.7232   ZZ=            -15.1816
   XY=             -0.0000   XZ=              0.0000   YZ=             -0.0000

  Exact polarizability:  22.819   0.000  22.819  -0.000  -0.000  24.487
 Approx polarizability:  29.608  -0.000  29.608  -0.000  -0.000  28.558

                     1                      2                      3
                    A1U                    EU                     EU
 Frequencies --   312.2601               827.1273               827.1275
 Red. masses --     1.0078                 1.0579                 1.0579
 Frc consts  --     0.0579                 0.4264                 0.4264
 IR Inten    --     0.0000                 4.6105                 4.6092

                     4                      5                      6
                    A1G                    EG                     EG
 Frequencies --  1004.8375              1225.7284              1225.7315
 Red. masses --     3.2571                 1.4667                 1.4667
 Frc consts  --     1.9376                 1.2983                 1.2983
 IR Inten    --     0.0000                 0.0000                 0.0000

                     7                      8                      9
                    A2U                    A1G                    EG
 Frequencies --  1417.4159              1439.5688              1516.6400
 Red. masses --     1.1980                 1.2559                 1.0187
 Frc consts  --     1.4181                 1.5334                 1.3806
 IR Inten    --     0.1495                 0.0000                 0.0000

                    10                     11                     12
                    EG                     EU                     EU
 Frequencies --  1516.6407              1521.2826              1521.2845
 Red. masses --     1.0187                 1.0617                 1.0617
 Frc consts  --     1.3806                 1.4477                 1.4477
 IR Inten    --     0.0000                 6.8775                 6.8797

                    13                     14                     15
                    A1G                    A2U                    EG
 Frequencies --  3043.8668              3045.0134              3099.7249
 Red. masses --     1.0368                 1.0343                 1.1020
 Frc consts  --     5.6596                 5.6504                 6.2383
 IR Inten    --     0.0000                57.5406                 0.0000

                    16                     17                     18
                    EG                     EU                     EU
 Frequencies --  3099.7249              3123.5962              3123.5980
 Red. masses --     1.1020                 1.1030                 1.1030
 Frc consts  --     6.2383                 6.3409                 6.3409
 IR Inten    --     0.0000                70.3868                70.3789

 - Thermochemistry -
 -------------------
 Temperature   298.150 Kelvin.  Pressure   1.00000 Atm.
 Atom     1 has atomic number  6 and mass  12.00000

 Molecular mass:    30.04695 amu.
 Principal axes and moments of inertia in atomic units:
                           1         2         3
     Eigenvalues --    22.46027  90.66984  90.66984
           X           -0.00000  -0.27058   0.96270
           Y            0.00000   0.96270   0.27058
           Z            1.00000  -0.00000   0.00000
 This molecule is a prolate symmetric top.
 Rotational symmetry number  6.
 Rotational temperatures (Kelvin)      3.85631     0.95527     0.95527
 Rotational constants (GHZ):          80.35259    19.90454    19.90454
 Zero-point vibrational energy     196732.9 (Joules/Mol)
                                   47.02029 (Kcal/Mol)
 Warning -- explicit consideration of   1 degrees of freedom as
           vibrations may cause significant error
 Vibrational temperatures:    449.27  1190.05  1190.05  1445.74  1763.55
          (Kelvin)           1763.55  2039.34  2071.22  2182.10  2182.10
                             2188.78  2188.79  4379.44  4381.09  4459.81
                             4459.81  4494.15  4494.16

 Zero-point correction=                           0.074932 (Hartree/Particle)
 Thermal correction to Energy=                    0.078409
 Thermal correction to Enthalpy=                  0.079353
 Thermal correction to Gibbs Free Energy=         0.053511
 Sum of electronic and zero-point Energies=            -79.763807
 Sum of electronic and thermal Energies=               -79.760329
 Sum of electronic and thermal Enthalpies=             -79.759385
 Sum of electronic and thermal Free Energies=          -79.785227

                     E (Thermal)             CV                S
                      KCal/Mol        Cal/Mol-Kelvin    Cal/Mol-Kelvin
 Total                   49.202             10.049             54.389
 Electronic               0.000              0.000              0.000
 Translational            0.889              2.981             36.134
 Rotational               0.889              2.981             16.291
 Vibrational             47.425              4.087              1.964
 Vibration     1          0.701              1.650              1.350

 Optimization completed.
    -- Stationary point found.
 Normal termination of Gaussian 09 at Wed Aug 21 02:06:56 2024.
