 Gaussian 09, Revision A.02,
 Gaussian 09:  EM64L-G09RevA.02 11-Jun-2009

 ---------------------------------------------
 #p B3LYP/6-31g(d,p) opt freq pop=full gfinput
 ---------------------------------------------

 ------
 ethyne
 ------
 Symbolic Z-matrix:
 Charge =  0 Multiplicity = 1

 SCF Done:  E(RB3LYP) =  -77.3295071311     A.U. after    9 cycles
 SCF Done:  E(RB3LYP) =  -77.3295663984     A.U. after    6 cycles
 Optimization completed.
    -- Stationary point found.
 Normal termination of Gaussian 09 at Tue Aug 20 19:19:39 2024.

 ----------------------------------------------------------------------
 #P Geom=AllCheck Guess=TCheck SCRF=Check GenChk RB3LYP/6-31G(d,p) Freq
 ----------------------------------------------------------------------

 ethyne
 ------
 Redundant internal coordinates taken from checkpoint file:
 /home/ospite/Desktop/MMfP/Project8/gaussian_simulations/Gau-3286.chk
 Charge =  0 Multiplicity = 1

                         Standard orientation:
 ---------------------------------------------------------------------
 Center     Atomic      Atomic             Coordinates (Angstroms)
 Number     Number       Type             X           Y           Z
 ---------------------------------------------------------------------
      1          6           0        0.000000    0.000000    0.602765
      2          6           0        0.000000    0.000000   -0.602765
      3          1           0        0.000000    0.000000    1.669002
      4          1           0        0.000000    0.000000   -1.669002
 ---------------------------------------------------------------------

 SCF Done:  E(RB3LYP) =  -77.3295663984     A.U. after    1 cycles

 The electronic state is 1-SGG.
 Alpha  occ. eigenvalues --  -10.19218 -10.18978  -0.74266  -0.56402  -0.49015
 Alpha  occ. eigenvalues --   -0.28232  -0.28232
 Alpha virt. eigenvalues --    0.05053   0.05053   0.10599   0.14952   0.42600
 Alpha virt. eigenvalues --    0.47078   0.53293   0.53293   0.65418   0.65418
 Alpha virt. eigenvalues --    0.74633   0.81164   1.02227   1.19893   1.37688

 Mulliken atomic charges:
              1
     1  C   -0.148883
     2  C   -0.148883
     3  H    0.148883
     4  H    0.148883
 Sum of Mulliken atomic charges =   0.00000

 Dipole moment (field-independent basis, Debye):
    X=              0.0000    Y=              0.0000    Z=              0.0000  Tot=              0.0000
 Quadrupole moment (field-independent basis, Debye-Ang):
   XX=            -13.0031   YY=            -13.0031   ZZ=             -6.8127
   XY=              0.0000   XZ=             -0.0000   YZ=              0.0000

  Exact polarizability:   8.000   0.000   8.000  -0.000  -0.000  28.174
 Approx polarizability:   9.973  -0.000   9.973  -0.000  -0.000  51.708

                     1                      2                      3
                    PIG                    PIG                    PIU
 Frequencies --   566.7252               566.7252               776.3503
 Red. masses --     1.5718                 1.5718                 1.0848
 Frc consts  --     0.2974                 0.2974                 0.3852
 IR Inten    --     0.0000                 0.0000                79.6573

                     4                      5                      6
                    PIU                    SGG                    SGU
 Frequencies --   776.3503              2084.8396              3431.2912
 Red. masses --     1.0848                 3.8120                 1.0848
 Frc consts  --     0.3852                 9.7622                 7.5253
 IR Inten    --    79.6573                 0.0000                85.4063

                     7
                    SGG
 Frequencies --  3531.0040
 Red. masses --     1.2297
 Frc consts  --     9.0329
 IR Inten    --     0.0000

 - Thermochemistry -
 -------------------
 Temperature   298.150 Kelvin.  Pressure   1.00000 Atm.
 Atom     1 has atomic number  6 and mass  12.00000

 Molecular mass:    26.01565 amu.
 Principal axes and moments of inertia in atomic units:
                           1         2         3
     Eigenvalues --     0.00000  51.18961  51.18961
           X           -0.00000   1.00000  -0.00000
           Y            0.00000   0.00000   1.00000
           Z            1.00000   0.00000  -0.00000
 This molecule is a prolate symmetric top.
 Rotational symmetry number  2.
 Rotational temperature (Kelvin)      1.69202
 Rotational constant (GHZ):          35.256008
 Zero-point vibrational energy      70180.6 (Joules/Mol)
                                   16.77357 (Kcal/Mol)
 Warning -- explicit consideration of   2 degrees of freedom as
           vibrations may cause significant error
 Vibrational temperatures:    815.39   815.39  1116.99  1116.99  2999.62
          (Kelvin)           4936.86  5080.32

 Zero-point correction=                           0.026730 (Hartree/Particle)
 Thermal correction to Energy=                    0.029621
 Thermal correction to Enthalpy=                  0.030565
 Thermal correction to Gibbs Free Energy=         0.007726
 Sum of electronic and zero-point Energies=            -77.302836
 Sum of electronic and thermal Energies=               -77.299946
 Sum of electronic and thermal Enthalpies=             -77.299001
 Sum of electronic and thermal Free Energies=          -77.321840

                     E (Thermal)             CV                S
                      KCal/Mol        Cal/Mol-Kelvin    Cal/Mol-Kelvin
 Total                   18.587              8.564             48.068
 Electronic               0.000              0.000              0.000
 Translational            0.889              2.981             35.704
 Rotational               0.592              1.987             10.887
 Vibrational             17.106              3.596              1.477
 Vibration     1          0.923              1.103              0.511
 Vibration     2          0.923              1.103              0.511

 Optimization completed.
    -- Stationary point found.
 Normal termination of Gaussian 09 at Tue Aug 20 19:19:53 2024.
