 Gaussian 09, Revision A.02,
 Gaussian 09:  EM64L-G09RevA.02 11-Jun-2009

 -------------------------------------------------------------------
 #p b3pw91/6-31++G opt freq symmetry=(follow,pg=Td) pop=full gfinput
 -------------------------------------------------------------------

 ---------------------------------------------------
 methane with imposed symmetry and 6-31++G basis set
 ---------------------------------------------------
 Symbolic Z-matrix:
 Charge =  0 Multiplicity = 1

 SCF Done:  E(RB3PW91) =  -40.4976353109     A.U. after    7 cycles
 SCF Done:  E(RB3PW91) =  -40.4976592698     A.U. after    5 cycles
 Optimization completed.
    -- Stationary point found.
 Normal termination of Gaussian 09 at Sun Aug 18 00:36:33 2024.

 --------------------------------------------------------------------
 #P Geom=AllCheck Guess=TCheck SCRF=Check GenChk RB3PW91/6-31++G Freq
 --------------------------------------------------------------------

 methane with imposed symmetry and 6-31++G basis set
 ---------------------------------------------------
 Redundant internal coordinates taken from checkpoint file:
 /home/ospite/Desktop/MMfP/Project6/CH4/g09/DFT/B3PW91/Gau-19388.chk
 Charge =  0 Multiplicity = 1

                         Standard orientation:
 ---------------------------------------------------------------------
 Center     Atomic      Atomic             Coordinates (Angstroms)
 Number     Number       Type             X           Y           Z
 ---------------------------------------------------------------------
      1          6           0        0.000000    0.000000    0.000000
      2          1           0        0.631130    0.631130    0.631130
      3          1           0       -0.631130   -0.631130    0.631130
      4          1           0       -0.631130    0.631130   -0.631130
      5          1           0        0.631130   -0.631130   -0.631130
 ---------------------------------------------------------------------

 SCF Done:  E(RB3PW91) =  -40.4976592698     A.U. after    1 cycles

 The electronic state is 1-A1.
 Alpha  occ. eigenvalues --  -10.14987  -0.70069  -0.39519  -0.39519  -0.39519
 Alpha virt. eigenvalues --    0.00375   0.04807   0.04807   0.04807   0.11307
 Alpha virt. eigenvalues --    0.11307   0.11307   0.14544   0.21928   0.21928
 Alpha virt. eigenvalues --    0.21928   0.35371   0.71789   0.71789   0.71789

 Mulliken atomic charges:
              1
     1  C   -0.829634
     2  H    0.207408
     3  H    0.207408
     4  H    0.207408
     5  H    0.207408
 Sum of Mulliken atomic charges =   0.00000

 Dipole moment (field-independent basis, Debye):
    X=             -0.0000    Y=             -0.0000    Z=             -0.0000  Tot=              0.0000
 Quadrupole moment (field-independent basis, Debye-Ang):
   XX=             -8.4395   YY=             -8.4395   ZZ=             -8.4395
   XY=             -0.0000   XZ=             -0.0000   YZ=             -0.0000

  Exact polarizability:  13.491  -0.000  13.491  -0.000   0.000  13.491
 Approx polarizability:  15.180   0.000  15.180   0.000  -0.000  15.180

                     1                      2                      3
                    T2                     T2                     T2
 Frequencies --  1394.5915              1394.5915              1394.5915
 Red. masses --     1.1826                 1.1826                 1.1826
 Frc consts  --     1.3551                 1.3551                 1.3551
 IR Inten    --    34.5425                34.5425                34.5425

                     4                      5                      6
                     E                      E                     A1
 Frequencies --  1595.1225              1595.1225              3046.3425
 Red. masses --     1.0078                 1.0078                 1.0078
 Frc consts  --     1.5109                 1.5109                 5.5105
 IR Inten    --     0.0000                 0.0000                 0.0000

                     7                      8                      9
                    T2                     T2                     T2
 Frequencies --  3179.1679              3179.1679              3179.1679
 Red. masses --     1.0985                 1.0985                 1.0985
 Frc consts  --     6.5416                 6.5416                 6.5416
 IR Inten    --    30.8335                30.8335                30.8335

 - Thermochemistry -
 -------------------
 Temperature   298.150 Kelvin.  Pressure   1.00000 Atm.
 Atom     1 has atomic number  6 and mass  12.00000

 Molecular mass:    16.03130 amu.
 Principal axes and moments of inertia in atomic units:
                           1         2         3
     Eigenvalues --    11.46860  11.46860  11.46860
           X            0.15314  -0.02225   0.98795
           Y            0.94250   0.30383  -0.13925
           Z           -0.29707   0.95247   0.06750
 This molecule is a spherical top.
 Rotational symmetry number 12.
 Rotational temperatures (Kelvin)      7.55226     7.55226     7.55226
 Rotational constants (GHZ):         157.36370   157.36370   157.36370
 Zero-point vibrational energy     119374.5 (Joules/Mol)
                                   28.53120 (Kcal/Mol)
 Vibrational temperatures:   2006.50  2006.50  2006.50  2295.02  2295.02
          (Kelvin)           4383.00  4574.11  4574.11  4574.11

 Zero-point correction=                           0.045467 (Hartree/Particle)
 Thermal correction to Energy=                    0.048329
 Thermal correction to Enthalpy=                  0.049274
 Thermal correction to Gibbs Free Energy=         0.028145
 Sum of electronic and zero-point Energies=            -40.452192
 Sum of electronic and thermal Energies=               -40.449330
 Sum of electronic and thermal Enthalpies=             -40.448386
 Sum of electronic and thermal Free Energies=          -40.469514

                     E (Thermal)             CV                S
                      KCal/Mol        Cal/Mol-Kelvin    Cal/Mol-Kelvin
 Total                   30.327              6.392             44.469
 Electronic               0.000              0.000              0.000
 Translational            0.889              2.981             34.261
 Rotational               0.889              2.981             10.137
 Vibrational             28.550              0.431              0.071

 Optimization completed.
    -- Stationary point found.
 Normal termination of Gaussian 09 at Sun Aug 18 00:36:44 2024.
