 Gaussian 09, Revision A.02,
 Gaussian 09:  EM64L-G09RevA.02 11-Jun-2009

 ----------------------------------------------------------------------
 #p b3pw91/aug-cc-pVDZ opt freq symmetry=(follow,pg=Td) pop=full gfinpu
 t
 ----------------------------------------------------------------------

 -------------------------------------------------------
 methane with imposed symmetry and aug-cc-pVDZ basis set
 -------------------------------------------------------
 Symbolic Z-matrix:
 Charge =  0 Multiplicity = 1

 SCF Done:  E(RB3PW91) =  -40.5058478396     A.U. after    7 cycles
 SCF Done:  E(RB3PW91) =  -40.5059536287     A.U. after    6 cycles
 Optimization completed.
    -- Stationary point found.
 Normal termination of Gaussian 09 at Sun Aug 18 00:39:06 2024.

 ----------------------------------------------------------------------
 #P Geom=AllCheck Guess=TCheck SCRF=Check GenChk RB3PW91/Aug-CC-pVDZ Fr
 eq
 ----------------------------------------------------------------------

 methane with imposed symmetry and aug-cc-pVDZ basis set
 -------------------------------------------------------
 Redundant internal coordinates taken from checkpoint file:
 /home/ospite/Desktop/MMfP/Project6/CH4/g09/DFT/B3PW91/Gau-19592.chk
 Charge =  0 Multiplicity = 1

                         Standard orientation:
 ---------------------------------------------------------------------
 Center     Atomic      Atomic             Coordinates (Angstroms)
 Number     Number       Type             X           Y           Z
 ---------------------------------------------------------------------
      1          6           0        0.000000    0.000000    0.000000
      2          1           0        0.633139    0.633139    0.633139
      3          1           0       -0.633139   -0.633139    0.633139
      4          1           0       -0.633139    0.633139   -0.633139
      5          1           0        0.633139   -0.633139   -0.633139
 ---------------------------------------------------------------------

 SCF Done:  E(RB3PW91) =  -40.5059536287     A.U. after    1 cycles

 The electronic state is 1-A1.
 Alpha  occ. eigenvalues --  -10.15718  -0.69690  -0.39246  -0.39246  -0.39246
 Alpha virt. eigenvalues --    0.00131   0.03731   0.03731   0.03731   0.10267
 Alpha virt. eigenvalues --    0.10267   0.10267   0.11614   0.17865   0.17865
 Alpha virt. eigenvalues --    0.17865   0.21454   0.21454   0.30993   0.34601

 Mulliken atomic charges:
              1
     1  C    0.748096
     2  H   -0.187024
     3  H   -0.187024
     4  H   -0.187024
     5  H   -0.187024
 Sum of Mulliken atomic charges =   0.00000

 Dipole moment (field-independent basis, Debye):
    X=              0.0000    Y=              0.0000    Z=              0.0000  Tot=              0.0000
 Quadrupole moment (field-independent basis, Debye-Ang):
   XX=             -8.4117   YY=             -8.4117   ZZ=             -8.4117
   XY=             -0.0000   XZ=             -0.0000   YZ=              0.0000

  Exact polarizability:  17.013   0.000  17.013   0.000   0.000  17.013
 Approx polarizability:  20.838   0.000  20.838  -0.000   0.000  20.838

                     1                      2                      3
                    T2                     T2                     T2
 Frequencies --  1296.5427              1296.5427              1296.5428
 Red. masses --     1.1792                 1.1792                 1.1792
 Frc consts  --     1.1679                 1.1679                 1.1679
 IR Inten    --    12.0122                12.0122                12.0122

                     4                      5                      6
                     E                      E                     A1
 Frequencies --  1521.3681              1521.3681              3033.1147
 Red. masses --     1.0078                 1.0078                 1.0078
 Frc consts  --     1.3744                 1.3744                 5.4628
 IR Inten    --     0.0000                 0.0000                 0.0000

                     7                      8                      9
                    T2                     T2                     T2
 Frequencies --  3164.6431              3164.6431              3164.6431
 Red. masses --     1.1015                 1.1015                 1.1015
 Frc consts  --     6.4995                 6.4995                 6.4995
 IR Inten    --    21.0595                21.0595                21.0595

 - Thermochemistry -
 -------------------
 Temperature   298.150 Kelvin.  Pressure   1.00000 Atm.
 Atom     1 has atomic number  6 and mass  12.00000

 Molecular mass:    16.03130 amu.
 Principal axes and moments of inertia in atomic units:
                           1         2         3
     Eigenvalues --    11.54175  11.54175  11.54175
           X            0.62228   0.78066   0.05786
           Y            0.09775  -0.15083   0.98371
           Z            0.77667  -0.60649  -0.17017
 This molecule is a spherical top.
 Rotational symmetry number 12.
 Rotational temperatures (Kelvin)      7.50439     7.50439     7.50439
 Rotational constants (GHZ):         156.36636   156.36636   156.36636
 Zero-point vibrational energy     116393.1 (Joules/Mol)
                                   27.81862 (Kcal/Mol)
 Vibrational temperatures:   1865.43  1865.43  1865.43  2188.91  2188.91
          (Kelvin)           4363.97  4553.21  4553.21  4553.21

 Zero-point correction=                           0.044332 (Hartree/Particle)
 Thermal correction to Energy=                    0.047207
 Thermal correction to Enthalpy=                  0.048152
 Thermal correction to Gibbs Free Energy=         0.026998
 Sum of electronic and zero-point Energies=            -40.461622
 Sum of electronic and thermal Energies=               -40.458746
 Sum of electronic and thermal Enthalpies=             -40.457802
 Sum of electronic and thermal Free Energies=          -40.478956

                     E (Thermal)             CV                S
                      KCal/Mol        Cal/Mol-Kelvin    Cal/Mol-Kelvin
 Total                   29.623              6.550             44.522
 Electronic               0.000              0.000              0.000
 Translational            0.889              2.981             34.261
 Rotational               0.889              2.981             10.156
 Vibrational             27.846              0.589              0.105

 Optimization completed.
    -- Stationary point found.
 Normal termination of Gaussian 09 at Sun Aug 18 00:39:46 2024.
