 Gaussian 09, Revision A.02,
 Gaussian 09:  EM64L-G09RevA.02 11-Jun-2009

 ------------------------------------------------------------------
 #p b3pw91/STO-3G opt freq symmetry=(follow,pg=Td) pop=full gfinput
 ------------------------------------------------------------------

 --------------------------------------------------
 methane with imposed symmetry and STO-3G basis set
 --------------------------------------------------
 Symbolic Z-matrix:
 Charge =  0 Multiplicity = 1

 SCF Done:  E(RB3PW91) =  -40.0297806837     A.U. after    8 cycles
 SCF Done:  E(RB3PW91) =  -40.0298683171     A.U. after    5 cycles
 SCF Done:  E(RB3PW91) =  -40.0298723754     A.U. after    5 cycles
 Optimization completed.
    -- Stationary point found.
 Normal termination of Gaussian 09 at Sun Aug 18 00:38:13 2024.

 -------------------------------------------------------------------
 #P Geom=AllCheck Guess=TCheck SCRF=Check GenChk RB3PW91/STO-3G Freq
 -------------------------------------------------------------------

 methane with imposed symmetry and STO-3G basis set
 --------------------------------------------------
 Redundant internal coordinates taken from checkpoint file:
 /home/ospite/Desktop/MMfP/Project6/CH4/g09/DFT/B3PW91/Gau-19452.chk
 Charge =  0 Multiplicity = 1

                         Standard orientation:
 ---------------------------------------------------------------------
 Center     Atomic      Atomic             Coordinates (Angstroms)
 Number     Number       Type             X           Y           Z
 ---------------------------------------------------------------------
      1          6           0        0.000000    0.000000    0.000000
      2          1           0        0.632503    0.632503    0.632503
      3          1           0       -0.632503   -0.632503    0.632503
      4          1           0       -0.632503    0.632503   -0.632503
      5          1           0        0.632503   -0.632503   -0.632503
 ---------------------------------------------------------------------

 SCF Done:  E(RB3PW91) =  -40.0298723754     A.U. after    1 cycles

 The electronic state is 1-A1.
 Alpha  occ. eigenvalues --   -9.97903  -0.66454  -0.36153  -0.36153  -0.36153
 Alpha virt. eigenvalues --    0.45873   0.45873   0.45873   0.49280

 Mulliken atomic charges:
              1
     1  C   -0.327164
     2  H    0.081791
     3  H    0.081791
     4  H    0.081791
     5  H    0.081791
 Sum of Mulliken atomic charges =  -0.00000

 Dipole moment (field-independent basis, Debye):
    X=              0.0000    Y=             -0.0000    Z=              0.0000  Tot=              0.0000
 Quadrupole moment (field-independent basis, Debye-Ang):
   XX=             -7.7130   YY=             -7.7130   ZZ=             -7.7130
   XY=              0.0000   XZ=             -0.0000   YZ=              0.0000

  Exact polarizability:   5.555   0.000   5.555  -0.000   0.000   5.555
 Approx polarizability:   6.736   0.000   6.736  -0.000   0.000   6.736

                     1                      2                      3
                    T2                     T2                     T2
 Frequencies --  1534.3066              1534.3066              1534.3066
 Red. masses --     1.1737                 1.1737                 1.1737
 Frc consts  --     1.6279                 1.6279                 1.6279
 IR Inten    --    13.5590                13.5590                13.5590

                     4                      5                      6
                     E                      E                     A1
 Frequencies --  1765.4139              1765.4139              3303.2669
 Red. masses --     1.0078                 1.0078                 1.0078
 Frc consts  --     1.8507                 1.8507                 6.4792
 IR Inten    --     0.0000                 0.0000                 0.0000

                     7                      8                      9
                    T2                     T2                     T2
 Frequencies --  3548.4921              3548.4921              3548.4921
 Red. masses --     1.1063                 1.1063                 1.1063
 Frc consts  --     8.2075                 8.2075                 8.2075
 IR Inten    --     0.4042                 0.4042                 0.4042

 - Thermochemistry -
 -------------------
 Temperature   298.150 Kelvin.  Pressure   1.00000 Atm.
 Atom     1 has atomic number  6 and mass  12.00000

 Molecular mass:    16.03130 amu.
 Principal axes and moments of inertia in atomic units:
                           1         2         3
     Eigenvalues --    11.51857  11.51857  11.51857
           X            0.90027  -0.41287   0.13805
           Y            0.42224   0.90531  -0.04602
           Z           -0.10598   0.09972   0.98936
 This molecule is a spherical top.
 Rotational symmetry number 12.
 Rotational temperatures (Kelvin)      7.51949     7.51949     7.51949
 Rotational constants (GHZ):         156.68096   156.68096   156.68096
 Zero-point vibrational energy     132082.6 (Joules/Mol)
                                   31.56851 (Kcal/Mol)
 Vibrational temperatures:   2207.52  2207.52  2207.52  2540.03  2540.03
          (Kelvin)           4752.66  5105.48  5105.48  5105.48

 Zero-point correction=                           0.050308 (Hartree/Particle)
 Thermal correction to Energy=                    0.053156
 Thermal correction to Enthalpy=                  0.054100
 Thermal correction to Gibbs Free Energy=         0.032981
 Sum of electronic and zero-point Energies=            -39.979565
 Sum of electronic and thermal Energies=               -39.976716
 Sum of electronic and thermal Enthalpies=             -39.975772
 Sum of electronic and thermal Free Energies=          -39.996891

                     E (Thermal)             CV                S
                      KCal/Mol        Cal/Mol-Kelvin    Cal/Mol-Kelvin
 Total                   33.356              6.219             44.449
 Electronic               0.000              0.000              0.000
 Translational            0.889              2.981             34.261
 Rotational               0.889              2.981             10.150
 Vibrational             31.579              0.257              0.038

 Optimization completed.
    -- Stationary point found.
 Normal termination of Gaussian 09 at Sun Aug 18 00:38:20 2024.
