 Gaussian 09, Revision A.02,
 Gaussian 09:  EM64L-G09RevA.02 11-Jun-2009

 -------------------------------------------------------------------
 #p b3pw91/cc-pVTZ opt freq symmetry=(follow,pg=Td) pop=full gfinput
 -------------------------------------------------------------------

 ------------------------------------------------------
 methane with imposed symmetry Td and cc-pVTZ basis set
 ------------------------------------------------------
 Symbolic Z-matrix:
 Charge =  0 Multiplicity = 1

 SCF Done:  E(RB3PW91) =  -40.5212818923     A.U. after    9 cycles
 SCF Done:  E(RB3PW91) =  -40.5212849297     A.U. after    5 cycles
 Optimization completed.
    -- Stationary point found.
 Normal termination of Gaussian 09 at Sun Aug 18 00:41:34 2024.

 --------------------------------------------------------------------
 #P Geom=AllCheck Guess=TCheck SCRF=Check GenChk RB3PW91/CC-pVTZ Freq
 --------------------------------------------------------------------

 methane with imposed symmetry Td and cc-pVTZ basis set
 ------------------------------------------------------
 Redundant internal coordinates taken from checkpoint file:
 /home/ospite/Desktop/MMfP/Project6/CH4/g09/DFT/B3PW91/Gau-19657.chk
 Charge =  0 Multiplicity = 1

                         Standard orientation:
 ---------------------------------------------------------------------
 Center     Atomic      Atomic             Coordinates (Angstroms)
 Number     Number       Type             X           Y           Z
 ---------------------------------------------------------------------
      1          6           0        0.000000    0.000000    0.000000
      2          1           0        0.628672    0.628672    0.628672
      3          1           0       -0.628672   -0.628672    0.628672
      4          1           0       -0.628672    0.628672   -0.628672
      5          1           0        0.628672   -0.628672   -0.628672
 ---------------------------------------------------------------------

 SCF Done:  E(RB3PW91) =  -40.5212849297     A.U. after    1 cycles

 The electronic state is 1-A1.
 Alpha  occ. eigenvalues --  -10.14237  -0.69834  -0.39437  -0.39437  -0.39437
 Alpha virt. eigenvalues --    0.05786   0.13081   0.13081   0.13081   0.24937
 Alpha virt. eigenvalues --    0.24937   0.24937   0.47262   0.47262   0.47262
 Alpha virt. eigenvalues --    0.47479   0.50278   0.50278   0.59421   0.87858

 Mulliken atomic charges:
              1
     1  C   -0.376697
     2  H    0.094174
     3  H    0.094174
     4  H    0.094174
     5  H    0.094174
 Sum of Mulliken atomic charges =  -0.00000

 Dipole moment (field-independent basis, Debye):
    X=             -0.0000    Y=             -0.0000    Z=              0.0000  Tot=              0.0000
 Quadrupole moment (field-independent basis, Debye-Ang):
   XX=             -8.3559   YY=             -8.3559   ZZ=             -8.3559
   XY=             -0.0000   XZ=             -0.0000   YZ=              0.0000

  Exact polarizability:  15.187   0.000  15.187   0.000   0.000  15.187
 Approx polarizability:  18.727  -0.000  18.727  -0.000  -0.000  18.727

                     1                      2                      3
                    T2                     T2                     T2
 Frequencies --  1329.7831              1329.7831              1329.7831
 Red. masses --     1.1796                 1.1796                 1.1796
 Frc consts  --     1.2290                 1.2290                 1.2290
 IR Inten    --    13.8380                13.8380                13.8380

                     4                      5                      6
                     E                      E                     A1
 Frequencies --  1553.7287              1553.7287              3034.8561
 Red. masses --     1.0078                 1.0078                 1.0078
 Frc consts  --     1.4335                 1.4335                 5.4690
 IR Inten    --     0.0000                 0.0000                 0.0000

                     7                      8                      9
                    T2                     T2                     T2
 Frequencies --  3151.4088              3151.4088              3151.4088
 Red. masses --     1.1011                 1.1011                 1.1011
 Frc consts  --     6.4431                 6.4431                 6.4431
 IR Inten    --    21.3056                21.3056                21.3056

 - Thermochemistry -
 -------------------
 Temperature   298.150 Kelvin.  Pressure   1.00000 Atm.
 Atom     1 has atomic number  6 and mass  12.00000

 Molecular mass:    16.03130 amu.
 Principal axes and moments of inertia in atomic units:
                           1         2         3
     Eigenvalues --    11.37945  11.37945  11.37945
           X            0.99539  -0.09588   0.00000
           Y            0.09588   0.99539   0.00000
           Z           -0.00000   0.00000   1.00000
 This molecule is a spherical top.
 Rotational symmetry number 12.
 Rotational temperatures (Kelvin)      7.61142     7.61142     7.61142
 Rotational constants (GHZ):         158.59655   158.59655   158.59655
 Zero-point vibrational energy     117149.6 (Joules/Mol)
                                   27.99943 (Kcal/Mol)
 Vibrational temperatures:   1913.26  1913.26  1913.26  2235.47  2235.47
          (Kelvin)           4366.48  4534.17  4534.17  4534.17

 Zero-point correction=                           0.044620 (Hartree/Particle)
 Thermal correction to Energy=                    0.047490
 Thermal correction to Enthalpy=                  0.048434
 Thermal correction to Gibbs Free Energy=         0.027307
 Sum of electronic and zero-point Energies=            -40.476665
 Sum of electronic and thermal Energies=               -40.473795
 Sum of electronic and thermal Enthalpies=             -40.472851
 Sum of electronic and thermal Free Energies=          -40.493978

                     E (Thermal)             CV                S
                      KCal/Mol        Cal/Mol-Kelvin    Cal/Mol-Kelvin
 Total                   29.800              6.488             44.466
 Electronic               0.000              0.000              0.000
 Translational            0.889              2.981             34.261
 Rotational               0.889              2.981             10.114
 Vibrational             28.023              0.527              0.091

 Optimization completed.
    -- Stationary point found.
 Normal termination of Gaussian 09 at Sun Aug 18 00:43:07 2024.
