 Gaussian 09, Revision A.02,
 Gaussian 09:  EM64L-G09RevA.02 11-Jun-2009

 -------------------------------------------------------------------
 #p b3pw91/cc-pVDZ opt freq symmetry=(follow,pg=Td) pop=full gfinput
 -------------------------------------------------------------------

 ------------------------------------------------------
 methane with imposed symmetry Td and cc-pVDZ basis set
 ------------------------------------------------------
 Symbolic Z-matrix:
 Charge =  0 Multiplicity = 1

 SCF Done:  E(RB3PW91) =  -40.5030336897     A.U. after    9 cycles
 SCF Done:  E(RB3PW91) =  -40.5032367255     A.U. after    6 cycles
 Optimization completed.
    -- Stationary point found.
 Normal termination of Gaussian 09 at Sun Aug 18 00:40:09 2024.

 --------------------------------------------------------------------
 #P Geom=AllCheck Guess=TCheck SCRF=Check GenChk RB3PW91/CC-pVDZ Freq
 --------------------------------------------------------------------

 methane with imposed symmetry Td and cc-pVDZ basis set
 ------------------------------------------------------
 Redundant internal coordinates taken from checkpoint file:
 /home/ospite/Desktop/MMfP/Project6/CH4/g09/DFT/B3PW91/Gau-19634.chk
 Charge =  0 Multiplicity = 1

                         Standard orientation:
 ---------------------------------------------------------------------
 Center     Atomic      Atomic             Coordinates (Angstroms)
 Number     Number       Type             X           Y           Z
 ---------------------------------------------------------------------
      1          6           0        0.000000    0.000000    0.000000
      2          1           0        0.634646    0.634646    0.634646
      3          1           0       -0.634646   -0.634646    0.634646
      4          1           0       -0.634646    0.634646   -0.634646
      5          1           0        0.634646   -0.634646   -0.634646
 ---------------------------------------------------------------------

 SCF Done:  E(RB3PW91) =  -40.5032367255     A.U. after    1 cycles

 The electronic state is 1-A1.
 Alpha  occ. eigenvalues --  -10.15871  -0.69283  -0.38869  -0.38869  -0.38869
 Alpha virt. eigenvalues --    0.08539   0.15169   0.15169   0.15169   0.42181
 Alpha virt. eigenvalues --    0.42181   0.42181   0.65909   0.65909   0.65909
 Alpha virt. eigenvalues --    0.68306   0.89232   0.89232   1.04660   1.40886

 Mulliken atomic charges:
              1
     1  C   -0.207433
     2  H    0.051858
     3  H    0.051858
     4  H    0.051858
     5  H    0.051858
 Sum of Mulliken atomic charges =  -0.00000

 Dipole moment (field-independent basis, Debye):
    X=              0.0000    Y=             -0.0000    Z=              0.0000  Tot=              0.0000
 Quadrupole moment (field-independent basis, Debye-Ang):
   XX=             -8.2446   YY=             -8.2446   ZZ=             -8.2446
   XY=              0.0000   XZ=              0.0000   YZ=              0.0000

  Exact polarizability:  13.326  -0.000  13.326  -0.000   0.000  13.326
 Approx polarizability:  16.123   0.000  16.123  -0.000  -0.000  16.123

                     1                      2                      3
                    T2                     T2                     T2
 Frequencies --  1305.8060              1305.8060              1305.8060
 Red. masses --     1.1787                 1.1787                 1.1787
 Frc consts  --     1.1841                 1.1841                 1.1841
 IR Inten    --    14.5042                14.5042                14.5042

                     4                      5                      6
                     E                      E                     A1
 Frequencies --  1530.8302              1530.8302              3036.7648
 Red. masses --     1.0078                 1.0078                 1.0078
 Frc consts  --     1.3915                 1.3915                 5.4759
 IR Inten    --     0.0000                 0.0000                 0.0000

                     7                      8                      9
                    T2                     T2                     T2
 Frequencies --  3174.1521              3174.1521              3174.1521
 Red. masses --     1.1019                 1.1019                 1.1019
 Frc consts  --     6.5413                 6.5413                 6.5413
 IR Inten    --    16.9485                16.9485                16.9485

 - Thermochemistry -
 -------------------
 Temperature   298.150 Kelvin.  Pressure   1.00000 Atm.
 Atom     1 has atomic number  6 and mass  12.00000

 Molecular mass:    16.03130 amu.
 Principal axes and moments of inertia in atomic units:
                           1         2         3
     Eigenvalues --    11.59673  11.59673  11.59673
           X            0.44175   0.00000   0.89714
           Y            0.89714   0.00000  -0.44175
           Z            0.00000   1.00000   0.00000
 This molecule is a spherical top.
 Rotational symmetry number 12.
 Rotational temperatures (Kelvin)      7.46882     7.46882     7.46882
 Rotational constants (GHZ):         155.62506   155.62506   155.62506
 Zero-point vibrational energy     116865.0 (Joules/Mol)
                                   27.93140 (Kcal/Mol)
 Vibrational temperatures:   1878.76  1878.76  1878.76  2202.52  2202.52
          (Kelvin)           4369.22  4566.89  4566.89  4566.89

 Zero-point correction=                           0.044512 (Hartree/Particle)
 Thermal correction to Energy=                    0.047386
 Thermal correction to Enthalpy=                  0.048330
 Thermal correction to Gibbs Free Energy=         0.027171
 Sum of electronic and zero-point Energies=            -40.458725
 Sum of electronic and thermal Energies=               -40.455851
 Sum of electronic and thermal Enthalpies=             -40.454907
 Sum of electronic and thermal Free Energies=          -40.476066

                     E (Thermal)             CV                S
                      KCal/Mol        Cal/Mol-Kelvin    Cal/Mol-Kelvin
 Total                   29.735              6.532             44.532
 Electronic               0.000              0.000              0.000
 Translational            0.889              2.981             34.261
 Rotational               0.889              2.981             10.170
 Vibrational             27.957              0.571              0.101

 Optimization completed.
    -- Stationary point found.
 Normal termination of Gaussian 09 at Sun Aug 18 00:40:23 2024.
