 Gaussian 09, Revision A.02,
 Gaussian 09:  EM64L-G09RevA.02 11-Jun-2009

 -----------------------------------------------------------------
 #p b3pw91/6-31G opt freq symmetry=(follow,pg=Td) pop=full gfinput
 -----------------------------------------------------------------

 ----------------------------------------------------
 methane with imposed symmetry Td and 6-31G basis set
 ----------------------------------------------------
 Symbolic Z-matrix:
 Charge =  0 Multiplicity = 1

 SCF Done:  E(RB3PW91) =  -40.4961103191     A.U. after   10 cycles
 SCF Done:  E(RB3PW91) =  -40.4961287235     A.U. after    5 cycles
 Optimization completed.
    -- Stationary point found.
 Normal termination of Gaussian 09 at Sun Aug 18 00:43:42 2024.

 ------------------------------------------------------------------
 #P Geom=AllCheck Guess=TCheck SCRF=Check GenChk RB3PW91/6-31G Freq
 ------------------------------------------------------------------

 methane with imposed symmetry Td and 6-31G basis set
 ----------------------------------------------------
 Redundant internal coordinates taken from checkpoint file:
 /home/ospite/Desktop/MMfP/Project6/CH4/g09/DFT/B3PW91/Gau-19709.chk
 Charge =  0 Multiplicity = 1

                         Standard orientation:
 ---------------------------------------------------------------------
 Center     Atomic      Atomic             Coordinates (Angstroms)
 Number     Number       Type             X           Y           Z
 ---------------------------------------------------------------------
      1          6           0        0.000000    0.000000    0.000000
      2          1           0        0.630907    0.630907    0.630907
      3          1           0       -0.630907   -0.630907    0.630907
      4          1           0       -0.630907    0.630907   -0.630907
      5          1           0        0.630907   -0.630907   -0.630907
 ---------------------------------------------------------------------

 SCF Done:  E(RB3PW91) =  -40.4961287235     A.U. after    1 cycles

 The electronic state is 1-A1.
 Alpha  occ. eigenvalues --  -10.14561  -0.69634  -0.39095  -0.39095  -0.39095
 Alpha virt. eigenvalues --    0.12681   0.18112   0.18112   0.18112   0.55252
 Alpha virt. eigenvalues --    0.55252   0.55252   0.95087   0.95087   0.95087
 Alpha virt. eigenvalues --    0.95366   1.11267

 Mulliken atomic charges:
              1
     1  C   -0.666990
     2  H    0.166747
     3  H    0.166747
     4  H    0.166747
     5  H    0.166747
 Sum of Mulliken atomic charges =  -0.00000

 Dipole moment (field-independent basis, Debye):
    X=             -0.0000    Y=              0.0000    Z=              0.0000  Tot=              0.0000
 Quadrupole moment (field-independent basis, Debye-Ang):
   XX=             -8.2322   YY=             -8.2322   ZZ=             -8.2322
   XY=             -0.0000   XZ=              0.0000   YZ=              0.0000

  Exact polarizability:  12.173   0.000  12.173   0.000  -0.000  12.173
 Approx polarizability:  13.829  -0.000  13.829   0.000   0.000  13.829

                     1                      2                      3
                    T2                     T2                     T2
 Frequencies --  1400.2920              1400.2920              1400.2920
 Red. masses --     1.1823                 1.1823                 1.1823
 Frc consts  --     1.3659                 1.3659                 1.3659
 IR Inten    --    29.9515                29.9515                29.9515

                     4                      5                      6
                     E                      E                     A1
 Frequencies --  1601.9796              1601.9796              3051.5043
 Red. masses --     1.0078                 1.0078                 1.0078
 Frc consts  --     1.5239                 1.5239                 5.5292
 IR Inten    --     0.0000                 0.0000                 0.0000

                     7                      8                      9
                    T2                     T2                     T2
 Frequencies --  3187.8525              3187.8525              3187.8525
 Red. masses --     1.0988                 1.0988                 1.0988
 Frc consts  --     6.5788                 6.5788                 6.5788
 IR Inten    --    27.6453                27.6453                27.6453

 - Thermochemistry -
 -------------------
 Temperature   298.150 Kelvin.  Pressure   1.00000 Atm.
 Atom     1 has atomic number  6 and mass  12.00000

 Molecular mass:    16.03130 amu.
 Principal axes and moments of inertia in atomic units:
                           1         2         3
     Eigenvalues --    11.46050  11.46050  11.46050
           X           -0.18687   0.29119   0.93824
           Y            0.97418  -0.06827   0.21521
           Z            0.12672   0.95423  -0.27092
 This molecule is a spherical top.
 Rotational symmetry number 12.
 Rotational temperatures (Kelvin)      7.55760     7.55760     7.55760
 Rotational constants (GHZ):         157.47492   157.47492   157.47492
 Zero-point vibrational energy     119745.6 (Joules/Mol)
                                   28.61988 (Kcal/Mol)
 Vibrational temperatures:   2014.71  2014.71  2014.71  2304.89  2304.89
          (Kelvin)           4390.43  4586.60  4586.60  4586.60

 Zero-point correction=                           0.045609 (Hartree/Particle)
 Thermal correction to Energy=                    0.048470
 Thermal correction to Enthalpy=                  0.049414
 Thermal correction to Gibbs Free Energy=         0.028287
 Sum of electronic and zero-point Energies=            -40.450520
 Sum of electronic and thermal Energies=               -40.447659
 Sum of electronic and thermal Enthalpies=             -40.446715
 Sum of electronic and thermal Free Energies=          -40.467841

                     E (Thermal)             CV                S
                      KCal/Mol        Cal/Mol-Kelvin    Cal/Mol-Kelvin
 Total                   30.415              6.384             44.465
 Electronic               0.000              0.000              0.000
 Translational            0.889              2.981             34.261
 Rotational               0.889              2.981             10.135
 Vibrational             28.638              0.422              0.069

 Optimization completed.
    -- Stationary point found.
 Normal termination of Gaussian 09 at Sun Aug 18 00:43:48 2024.
