 Gaussian 09, Revision A.02,
 Gaussian 09:  EM64L-G09RevA.02 11-Jun-2009

 -------------------------------------------------------------------
 #p b3pw91/cc-pVQZ opt freq symmetry=(follow,pg=Td) pop=full gfinput
 -------------------------------------------------------------------

 ------------------------------------------------------
 methane with imposed symmetry Td and cc-pVQZ basis set
 ------------------------------------------------------
 Symbolic Z-matrix:
 Charge =  0 Multiplicity = 1

 SCF Done:  E(RB3PW91) =  -40.5244305761     A.U. after    8 cycles
 SCF Done:  E(RB3PW91) =  -40.5244380503     A.U. after    5 cycles
 Optimization completed.
    -- Stationary point found.
 Normal termination of Gaussian 09 at Sun Aug 18 13:31:04 2024.

 --------------------------------------------------------------------
 #P Geom=AllCheck Guess=TCheck SCRF=Check GenChk RB3PW91/CC-pVQZ Freq
 --------------------------------------------------------------------

 methane with imposed symmetry Td and cc-pVQZ basis set
 ------------------------------------------------------
 Redundant internal coordinates taken from checkpoint file:
 /home/ospite/Desktop/MMfP/Project6/CH4/g09/DFT/B3PW91/Gau-6190.chk
 Charge =  0 Multiplicity = 1

                         Standard orientation:
 ---------------------------------------------------------------------
 Center     Atomic      Atomic             Coordinates (Angstroms)
 Number     Number       Type             X           Y           Z
 ---------------------------------------------------------------------
      1          6           0        0.000000    0.000000    0.000000
      2          1           0        0.628310    0.628310    0.628310
      3          1           0       -0.628310   -0.628310    0.628310
      4          1           0       -0.628310    0.628310   -0.628310
      5          1           0        0.628310   -0.628310   -0.628310
 ---------------------------------------------------------------------

 SCF Done:  E(RB3PW91) =  -40.5244380503     A.U. after    1 cycles

 The electronic state is 1-A1.
 Alpha  occ. eigenvalues --  -10.13980  -0.69860  -0.39481  -0.39481  -0.39481
 Alpha virt. eigenvalues --    0.04168   0.11652   0.11652   0.11652   0.18752
 Alpha virt. eigenvalues --    0.18752   0.18752   0.36706   0.38141   0.38141
 Alpha virt. eigenvalues --    0.38141   0.38538   0.38538   0.48531   0.67712

 Mulliken atomic charges:
              1
     1  C   -0.401851
     2  H    0.100463
     3  H    0.100463
     4  H    0.100463
     5  H    0.100463
 Sum of Mulliken atomic charges =   0.00000

 Dipole moment (field-independent basis, Debye):
    X=             -0.0000    Y=              0.0000    Z=              0.0000  Tot=              0.0000
 Quadrupole moment (field-independent basis, Debye-Ang):
   XX=             -8.3565   YY=             -8.3565   ZZ=             -8.3565
   XY=              0.0000   XZ=              0.0000   YZ=             -0.0000

  Exact polarizability:  15.934   0.000  15.934   0.000   0.000  15.934
 Approx polarizability:  19.624   0.000  19.624   0.000   0.000  19.624

 Error termination via Lnk1e in /programs/64bit/g09/g09-gfortran/bin/l701.exe at Sun Aug 18 13:41:57 2024.
