 Gaussian 09, Revision A.02,
 Gaussian 09:  EM64L-G09RevA.02 11-Jun-2009

 ------------------------------------------------------------------
 #p b3pw91/6-31+G opt freq symmetry=(follow,pg=Td) pop=full gfinput
 ------------------------------------------------------------------

 --------------------------------------------------
 methane with imposed symmetry and 6-31+G basis set
 --------------------------------------------------
 Symbolic Z-matrix:
 Charge =  0 Multiplicity = 1

 SCF Done:  E(RB3PW91) =  -40.4976256163     A.U. after    7 cycles
 SCF Done:  E(RB3PW91) =  -40.4976495830     A.U. after    5 cycles
 Optimization completed.
    -- Stationary point found.
 Normal termination of Gaussian 09 at Sun Aug 18 00:35:35 2024.

 -------------------------------------------------------------------
 #P Geom=AllCheck Guess=TCheck SCRF=Check GenChk RB3PW91/6-31+G Freq
 -------------------------------------------------------------------

 methane with imposed symmetry and 6-31+G basis set
 --------------------------------------------------
 Redundant internal coordinates taken from checkpoint file:
 /home/ospite/Desktop/MMfP/Project6/CH4/g09/DFT/B3PW91/Gau-19331.chk
 Charge =  0 Multiplicity = 1

                         Standard orientation:
 ---------------------------------------------------------------------
 Center     Atomic      Atomic             Coordinates (Angstroms)
 Number     Number       Type             X           Y           Z
 ---------------------------------------------------------------------
      1          6           0        0.000000    0.000000    0.000000
      2          1           0        0.631131    0.631131    0.631131
      3          1           0       -0.631131   -0.631131    0.631131
      4          1           0       -0.631131    0.631131   -0.631131
      5          1           0        0.631131   -0.631131   -0.631131
 ---------------------------------------------------------------------

 SCF Done:  E(RB3PW91) =  -40.4976495830     A.U. after    1 cycles

 The electronic state is 1-A1.
 Alpha  occ. eigenvalues --  -10.14982  -0.70069  -0.39519  -0.39519  -0.39519
 Alpha virt. eigenvalues --    0.02930   0.07277   0.07277   0.07277   0.18632
 Alpha virt. eigenvalues --    0.18632   0.18632   0.28101   0.65963   0.65963
 Alpha virt. eigenvalues --    0.65963   1.00533   1.00533   1.00533   1.06992

 Mulliken atomic charges:
              1
     1  C   -0.808519
     2  H    0.202130
     3  H    0.202130
     4  H    0.202130
     5  H    0.202130
 Sum of Mulliken atomic charges =   0.00000

 Dipole moment (field-independent basis, Debye):
    X=              0.0000    Y=              0.0000    Z=              0.0000  Tot=              0.0000
 Quadrupole moment (field-independent basis, Debye-Ang):
   XX=             -8.4380   YY=             -8.4380   ZZ=             -8.4380
   XY=              0.0000   XZ=             -0.0000   YZ=              0.0000

  Exact polarizability:  13.046   0.000  13.046   0.000   0.000  13.046
 Approx polarizability:  14.759   0.000  14.759  -0.000  -0.000  14.759

                     1                      2                      3
                    T2                     T2                     T2
 Frequencies --  1394.8932              1394.8932              1394.8932
 Red. masses --     1.1826                 1.1826                 1.1826
 Frc consts  --     1.3557                 1.3557                 1.3557
 IR Inten    --    35.1071                35.1071                35.1071

                     4                      5                      6
                     E                      E                     A1
 Frequencies --  1594.7605              1594.7605              3047.0046
 Red. masses --     1.0078                 1.0078                 1.0078
 Frc consts  --     1.5102                 1.5102                 5.5129
 IR Inten    --     0.0000                 0.0000                 0.0000

                     7                      8                      9
                    T2                     T2                     T2
 Frequencies --  3180.2074              3180.2074              3180.2074
 Red. masses --     1.0985                 1.0985                 1.0985
 Frc consts  --     6.5460                 6.5460                 6.5460
 IR Inten    --    27.6631                27.6631                27.6631

 - Thermochemistry -
 -------------------
 Temperature   298.150 Kelvin.  Pressure   1.00000 Atm.
 Atom     1 has atomic number  6 and mass  12.00000

 Molecular mass:    16.03130 amu.
 Principal axes and moments of inertia in atomic units:
                           1         2         3
     Eigenvalues --    11.46863  11.46863  11.46863
           X           -0.05968   0.23732   0.96960
           Y           -0.01589   0.97098  -0.23863
           Z            0.99809   0.02964   0.05417
 This molecule is a spherical top.
 Rotational symmetry number 12.
 Rotational temperatures (Kelvin)      7.55224     7.55224     7.55224
 Rotational constants (GHZ):         157.36334   157.36334   157.36334
 Zero-point vibrational energy     119398.2 (Joules/Mol)
                                   28.53686 (Kcal/Mol)
 Vibrational temperatures:   2006.94  2006.94  2006.94  2294.50  2294.50
          (Kelvin)           4383.95  4575.60  4575.60  4575.60

 Zero-point correction=                           0.045476 (Hartree/Particle)
 Thermal correction to Energy=                    0.048338
 Thermal correction to Enthalpy=                  0.049283
 Thermal correction to Gibbs Free Energy=         0.028154
 Sum of electronic and zero-point Energies=            -40.452173
 Sum of electronic and thermal Energies=               -40.449311
 Sum of electronic and thermal Enthalpies=             -40.448367
 Sum of electronic and thermal Free Energies=          -40.469496

                     E (Thermal)             CV                S
                      KCal/Mol        Cal/Mol-Kelvin    Cal/Mol-Kelvin
 Total                   30.333              6.392             44.469
 Electronic               0.000              0.000              0.000
 Translational            0.889              2.981             34.261
 Rotational               0.889              2.981             10.137
 Vibrational             28.555              0.431              0.071

 Optimization completed.
    -- Stationary point found.
 Normal termination of Gaussian 09 at Sun Aug 18 00:35:44 2024.
