 Gaussian 09, Revision D.01,
 Gaussian 09:  EM64L-G09RevD.01 24-Apr-2013

 -----------------------------
 #p B3LYP/6-31+g(d,p) nmr=giao
 -----------------------------

 ---------------
 acetic acid opt
 ---------------
 Symbolic Z-matrix:
 Charge =  0 Multiplicity = 1

                         Standard orientation:
 ---------------------------------------------------------------------
 Center     Atomic      Atomic             Coordinates (Angstroms)
 Number     Number       Type             X           Y           Z
 ---------------------------------------------------------------------
      1          6           0        0.000000    0.180672    0.000000
      2          6           0       -0.920134   -1.028556    0.000000
      3          1           0       -0.399430   -1.990236    0.000000
      4          1           0       -1.564479   -0.973227    0.881636
      5          1           0       -1.564479   -0.973227   -0.881636
      6          8           0       -0.400240    1.318214    0.000000
      7          8           0        1.341258   -0.063486    0.000000
      8          1           0        1.521048   -1.013829    0.000000
 ---------------------------------------------------------------------

 SCF Done:  E(RB3LYP) =  -229.095414062     A.U. after   11 cycles

      1  C    Isotropic =    31.9868   Anisotropy =    80.8225

      2  C    Isotropic =   170.3134   Anisotropy =    42.7153

      3  H    Isotropic =    30.3959   Anisotropy =     6.5223

      4  H    Isotropic =    29.3657   Anisotropy =     6.4428

      5  H    Isotropic =    29.3657   Anisotropy =     6.4428

      6  O    Isotropic =   -73.9684   Anisotropy =   562.5808

      7  O    Isotropic =   120.8890   Anisotropy =   187.5750

      8  H    Isotropic =    25.7223   Anisotropy =     6.6940

 The electronic state is 1-A'.
 Alpha  occ. eigenvalues --  -19.21662 -19.15235 -10.33900 -10.22269  -1.11612
 Alpha  occ. eigenvalues --   -1.03484  -0.76861  -0.63350  -0.52997  -0.48165
 Alpha  occ. eigenvalues --   -0.47835  -0.43420  -0.40999  -0.39021  -0.33184
 Alpha  occ. eigenvalues --   -0.28952
 Alpha virt. eigenvalues --   -0.01650  -0.00966   0.02228   0.04384   0.04450
 Alpha virt. eigenvalues --    0.07098   0.07774   0.08968   0.11211   0.13868
 Alpha virt. eigenvalues --    0.15390   0.17757   0.18813   0.21695   0.22308

 Mulliken charges:
               1
     1  C    0.406947
     2  C   -0.424621
     3  H    0.130981
     4  H    0.197445
     5  H    0.197445
     6  O   -0.427736
     7  O   -0.417361
     8  H    0.336899
 Sum of Mulliken charges =  -0.00000

 Dipole moment (field-independent basis, Debye):
    X=             -0.2151    Y=             -4.6073    Z=              0.0000  Tot=              4.6123
 Quadrupole moment (field-independent basis, Debye-Ang):
   XX=            -23.8347   YY=            -25.4450   ZZ=            -23.3965
   XY=             -1.0062   XZ=             -0.0000   YZ=             -0.0000

 Normal termination of Gaussian 09 at Wed Sep 11 22:05:38 2024.
