 Gaussian 09, Revision D.01,
 Gaussian 09:  EM64L-G09RevD.01 24-Apr-2013

 -----------------------------
 #p B3LYP/6-31+g(d,p) nmr=giao
 -----------------------------

 ---------------
 acetic acid opt
 ---------------
 Symbolic Z-matrix:
 Charge =  0 Multiplicity = 1

                         Standard orientation:
 ---------------------------------------------------------------------
 Center     Atomic      Atomic             Coordinates (Angstroms)
 Number     Number       Type             X           Y           Z
 ---------------------------------------------------------------------
      1          6           0        0.000000    0.159078    0.000000
      2          6           0       -0.890900   -1.047693    0.000000
      3          1           0       -0.291137   -1.933800   -0.000000
      4          1           0       -1.508535   -1.035055    0.873651
      5          1           0       -1.508535   -1.035055   -0.873651
      6          8           0       -0.487711    1.277353    0.000000
      7          8           0        1.371301    0.004375   -0.000000
      8          1           0        1.584887   -0.918225   -0.000000
 ---------------------------------------------------------------------

 SCF Done:  E(RB3LYP) =  -229.091624755     A.U. after   11 cycles

      1  C    Isotropic =    25.5289   Anisotropy =    86.5073

      2  C    Isotropic =   174.0566   Anisotropy =    42.6069

      3  H    Isotropic =    31.1675   Anisotropy =     6.4485

      4  H    Isotropic =    29.9085   Anisotropy =     6.5524

      5  H    Isotropic =    29.9085   Anisotropy =     6.5524

      6  O    Isotropic =  -106.9534   Anisotropy =   599.6644

      7  O    Isotropic =   127.5378   Anisotropy =   190.4915

      8  H    Isotropic =    26.1074   Anisotropy =     6.7017

 The electronic state is 1-A'.
 Alpha  occ. eigenvalues --  -19.21846 -19.15114 -10.33931 -10.21670  -1.11313
 Alpha  occ. eigenvalues --   -1.03136  -0.77745  -0.63327  -0.53125  -0.48513
 Alpha  occ. eigenvalues --   -0.48198  -0.43075  -0.41225  -0.39869  -0.33063
 Alpha  occ. eigenvalues --   -0.28555
 Alpha virt. eigenvalues --   -0.01585  -0.01530   0.02332   0.04384   0.04506
 Alpha virt. eigenvalues --    0.07114   0.07935   0.09013   0.11281   0.14102
 Alpha virt. eigenvalues --    0.16151   0.17401   0.19430   0.22016   0.22711

 Mulliken charges:
               1
     1  C    0.391347
     2  C   -0.404571
     3  H    0.124153
     4  H    0.200224
     5  H    0.200224
     6  O   -0.427815
     7  O   -0.418248
     8  H    0.334687
 Sum of Mulliken charges =  -0.00000

 Dipole moment (field-independent basis, Debye):
    X=              0.0094    Y=             -4.6396    Z=              0.0000  Tot=              4.6396
 Quadrupole moment (field-independent basis, Debye-Ang):
   XX=            -23.6400   YY=            -25.6916   ZZ=            -23.2881
   XY=             -0.8324   XZ=             -0.0000   YZ=             -0.0000

 Normal termination of Gaussian 09 at Sun Sep  1 14:00:14 2024.
