 Gaussian 09, Revision D.01,
 Gaussian 09:  EM64L-G09RevD.01 24-Apr-2013

 ---------------------------------------------------
 #p B3LYP/6-31+g(d,p) opt(internal) pop=full gfinput
 ---------------------------------------------------

 ---------------
 acetic acid opt
 ---------------
 Symbolic Z-matrix:
 Charge =  0 Multiplicity = 1

 SCF Done:  E(RB3LYP) =  -229.091624755     A.U. after   11 cycles
 SCF Done:  E(RB3LYP) =  -229.095350267     A.U. after   10 cycles
 SCF Done:  E(RB3LYP) =  -229.095411893     A.U. after    9 cycles
 SCF Done:  E(RB3LYP) =  -229.095414063     A.U. after    8 cycles
 Optimization completed.
    -- Stationary point found.

                         Standard orientation:
 ---------------------------------------------------------------------
 Center     Atomic      Atomic             Coordinates (Angstroms)
 Number     Number       Type             X           Y           Z
 ---------------------------------------------------------------------
      1          6           0        0.000000    0.180669   -0.000000
      2          6           0       -0.920110   -1.028548   -0.000000
      3          1           0       -0.399411   -1.990201    0.000000
      4          1           0       -1.564445   -0.973224    0.881620
      5          1           0       -1.564445   -0.973224   -0.881620
      6          8           0       -0.400241    1.318188   -0.000000
      7          8           0        1.341234   -0.063475    0.000000
      8          1           0        1.521022   -1.013771    0.000000
 ---------------------------------------------------------------------

 The electronic state is 1-A'.
 Alpha  occ. eigenvalues --  -19.21662 -19.15234 -10.33899 -10.22268  -1.11614
 Alpha  occ. eigenvalues --   -1.03485  -0.76862  -0.63351  -0.52998  -0.48166
 Alpha  occ. eigenvalues --   -0.47836  -0.43420  -0.40999  -0.39021  -0.33184
 Alpha  occ. eigenvalues --   -0.28952
 Alpha virt. eigenvalues --   -0.01650  -0.00965   0.02228   0.04384   0.04450
 Alpha virt. eigenvalues --    0.07098   0.07774   0.08968   0.11211   0.13869
 Alpha virt. eigenvalues --    0.15390   0.17758   0.18814   0.21697   0.22308

 Mulliken charges:
               1
     1  C    0.406966
     2  C   -0.424635
     3  H    0.130980
     4  H    0.197446
     5  H    0.197446
     6  O   -0.427743
     7  O   -0.417359
     8  H    0.336900
 Sum of Mulliken charges =   0.00000

 Dipole moment (field-independent basis, Debye):
    X=             -0.2151    Y=             -4.6072    Z=              0.0000  Tot=              4.6123
 Quadrupole moment (field-independent basis, Debye-Ang):
   XX=            -23.8346   YY=            -25.4450   ZZ=            -23.3963
   XY=             -1.0061   XZ=              0.0000   YZ=             -0.0000

 Normal termination of Gaussian 09 at Wed Sep 11 21:57:40 2024.
