 Gaussian 09, Revision A.02,
 Gaussian 09:  EM64L-G09RevA.02 11-Jun-2009

 ------------------------
 #p B3LYP/6-31+g(d,p) opt
 ------------------------

 --------
 ho2- gas
 --------
 Symbolic Z-matrix:
 Charge = -1 Multiplicity = 1

 SCF Done:  E(RB3LYP) =  -150.912705735     A.U. after   16 cycles
 SCF Done:  E(RB3LYP) =  -150.943528924     A.U. after   13 cycles
 SCF Done:  E(RB3LYP) =  -150.951726710     A.U. after   13 cycles
 SCF Done:  E(RB3LYP) =  -150.952092141     A.U. after    9 cycles
 SCF Done:  E(RB3LYP) =  -150.952115057     A.U. after    9 cycles
 SCF Done:  E(RB3LYP) =  -150.952115397     A.U. after    8 cycles
 Optimization completed.
    -- Stationary point found.

                         Standard orientation:
 ---------------------------------------------------------------------
 Center     Atomic      Atomic             Coordinates (Angstroms)
 Number     Number       Type             X           Y           Z
 ---------------------------------------------------------------------
      1          8           0        0.056101   -0.706983    0.000000
      2          8           0        0.056101    0.814304    0.000000
      3          1           0       -0.897611   -0.858570   -0.000000
 ---------------------------------------------------------------------

 The electronic state is 1-A'.
 Alpha  occ. eigenvalues --  -18.93461 -18.85810  -0.77608  -0.53478  -0.21839
 Alpha  occ. eigenvalues --   -0.12567  -0.09589   0.03309   0.05614
 Alpha virt. eigenvalues --    0.23301   0.28058   0.34236   0.36041   0.37811
 Alpha virt. eigenvalues --    0.39970   0.40885   0.41495   0.47073   0.53467
 Alpha virt. eigenvalues --    1.17207   1.31923   1.34909   1.34975   1.43241

 Mulliken atomic charges:
              1
     1  O   -0.512922
     2  O   -0.784079
     3  H    0.297001
 Sum of Mulliken atomic charges =  -1.00000

 Dipole moment (field-independent basis, Debye):
    X=             -1.8258    Y=             -2.4244    Z=             -0.0000  Tot=              3.0350
 Quadrupole moment (field-independent basis, Debye-Ang):
   XX=            -13.4629   YY=            -18.1746   ZZ=            -15.6947
   XY=              1.4849   XZ=             -0.0000   YZ=             -0.0000

 Normal termination of Gaussian 09 at Mon Sep 16 17:14:37 2024.
