 Gaussian 09, Revision A.02,
 Gaussian 09:  EM64L-G09RevA.02 11-Jun-2009

 ----------------------------------------------
 #p b3lyp/6-31+g(d,p) opt freq pop=full gfinput
 ----------------------------------------------

 ----------------------------------------
 hydrogen(molecule) with 6-31+G basis set
 ----------------------------------------
 Symbolic Z-matrix:
 Charge =  0 Multiplicity = 1

 SCF Done:  E(RB3LYP) =  -1.17853400664     A.U. after    6 cycles
 SCF Done:  E(RB3LYP) =  -1.17853933408     A.U. after    4 cycles
 Optimization completed.
    -- Stationary point found.
 Normal termination of Gaussian 09 at Sun Sep 15 20:41:03 2024.

 ----------------------------------------------------------------------
 #P Geom=AllCheck Guess=TCheck SCRF=Check GenChk RB3LYP/6-31+G(d,p) Fre
 q
 ----------------------------------------------------------------------

 hydrogen(molecule) with 6-31+G basis set
 ----------------------------------------
 Redundant internal coordinates taken from checkpoint file:
 /home/ospite/Desktop/MMfP/Project9/CH4/reactants/H2/Gau-2034.chk
 Charge =  0 Multiplicity = 1

                         Standard orientation:
 ---------------------------------------------------------------------
 Center     Atomic      Atomic             Coordinates (Angstroms)
 Number     Number       Type             X           Y           Z
 ---------------------------------------------------------------------
      1          1           0        0.000000    0.000000    0.371369
      2          1           0        0.000000    0.000000   -0.371369
 ---------------------------------------------------------------------

 SCF Done:  E(RB3LYP) =  -1.17853933408     A.U. after    1 cycles

 The electronic state is 1-SGG.
 Alpha  occ. eigenvalues --   -0.43159
 Alpha virt. eigenvalues --    0.10098   0.57698   1.03614   1.67470   1.67470
 Alpha virt. eigenvalues --    2.37898   2.61573   2.61573   4.15313

 Mulliken atomic charges:
              1
     1  H   -0.000000
     2  H   -0.000000
 Sum of Mulliken atomic charges =  -0.00000

 Dipole moment (field-independent basis, Debye):
    X=             -0.0000    Y=             -0.0000    Z=              0.0000  Tot=              0.0000
 Quadrupole moment (field-independent basis, Debye-Ang):
   XX=             -2.0290   YY=             -2.0290   ZZ=             -1.5076
   XY=             -0.0000   XZ=             -0.0000   YZ=              0.0000

  Exact polarizability:   0.582   0.000   0.582  -0.000  -0.000   6.365
 Approx polarizability:   0.599  -0.000   0.599  -0.000  -0.000   7.763

                     1
                    SGG
 Frequencies --  4466.4384
 Red. masses --     1.0078
 Frc consts  --    11.8456
 IR Inten    --     0.0000

 - Thermochemistry -
 -------------------
 Temperature   298.150 Kelvin.  Pressure   1.00000 Atm.
 Atom     1 has atomic number  1 and mass   1.00783

 Molecular mass:     2.01565 amu.
 Principal axes and moments of inertia in atomic units:
                           1         2         3
     Eigenvalues --     0.00000   0.99271   0.99271
           X           -0.00000   1.00000  -0.00000
           Y            0.00000   0.00000   1.00000
           Z            1.00000   0.00000  -0.00000
 This molecule is a prolate symmetric top.
 Rotational symmetry number  2.
 Rotational temperature (Kelvin)     87.24943
 Rotational constant (GHZ):        1817.985296
 Zero-point vibrational energy      26715.2 (Joules/Mol)
                                    6.38509 (Kcal/Mol)
 Vibrational temperatures:   6426.20
          (Kelvin)

 Zero-point correction=                           0.010175 (Hartree/Particle)
 Thermal correction to Energy=                    0.012536
 Thermal correction to Enthalpy=                  0.013480
 Thermal correction to Gibbs Free Energy=        -0.001312
 Sum of electronic and zero-point Energies=             -1.168364
 Sum of electronic and thermal Energies=                -1.166004
 Sum of electronic and thermal Enthalpies=              -1.165059
 Sum of electronic and thermal Free Energies=           -1.179851

                     E (Thermal)             CV                S
                      KCal/Mol        Cal/Mol-Kelvin    Cal/Mol-Kelvin
 Total                    7.866              4.968             31.132
 Electronic               0.000              0.000              0.000
 Translational            0.889              2.981             28.080
 Rotational               0.592              1.987              3.052
 Vibrational              6.385              0.000              0.000

 Optimization completed.
    -- Stationary point found.
 Normal termination of Gaussian 09 at Sun Sep 15 20:41:05 2024.
