 Gaussian 09, Revision A.02,
 Gaussian 09:  EM64L-G09RevA.02 11-Jun-2009

 ------------------------
 #p B3LYP/6-31+g(d,p) opt
 ------------------------

 ---------
 ch3o- gas
 ---------
 Symbolic Z-matrix:
 Charge = -1 Multiplicity = 1

 SCF Done:  E(RB3LYP) =  -115.104752964     A.U. after   14 cycles
 SCF Done:  E(RB3LYP) =  -115.113485989     A.U. after   10 cycles
 SCF Done:  E(RB3LYP) =  -115.115215166     A.U. after   10 cycles
 SCF Done:  E(RB3LYP) =  -115.115512896     A.U. after    9 cycles
 SCF Done:  E(RB3LYP) =  -115.115520549     A.U. after    8 cycles
 Optimization completed.
    -- Stationary point found.

                         Standard orientation:
 ---------------------------------------------------------------------
 Center     Atomic      Atomic             Coordinates (Angstroms)
 Number     Number       Type             X           Y           Z
 ---------------------------------------------------------------------
      1          6           0        0.000000    0.000000   -0.543818
      2          8           0        0.000000    0.000000    0.797235
      3          1           0        0.000000    1.028674   -1.038323
      4          1           0        0.890858   -0.514337   -1.038323
      5          1           0       -0.890858   -0.514337   -1.038323
 ---------------------------------------------------------------------

 The electronic state is 1-A1.
 Alpha  occ. eigenvalues --  -18.81520  -9.99752  -0.67832  -0.39553  -0.17935
 Alpha  occ. eigenvalues --   -0.17935  -0.11935   0.03956   0.03956
 Alpha virt. eigenvalues --    0.17377   0.20711   0.21134   0.21134   0.37812
 Alpha virt. eigenvalues --    0.40801   0.40801   0.42768   0.42768   0.45482
 Alpha virt. eigenvalues --    0.48361   0.57110   0.89461   0.89461   0.92213

 Mulliken atomic charges:
              1
     1  C   -0.179257
     2  O   -0.829642
     3  H    0.002966
     4  H    0.002966
     5  H    0.002966
 Sum of Mulliken atomic charges =  -1.00000

 Dipole moment (field-independent basis, Debye):
    X=             -0.0000    Y=             -0.0000    Z=             -2.5219  Tot=              2.5219
 Quadrupole moment (field-independent basis, Debye-Ang):
   XX=            -17.6547   YY=            -17.6547   ZZ=            -22.0935
   XY=              0.0000   XZ=              0.0000   YZ=              0.0000

 Normal termination of Gaussian 09 at Mon Sep 16 17:43:07 2024.
