 Gaussian 09, Revision A.02,
 Gaussian 09:  EM64L-G09RevA.02 11-Jun-2009

 -------------------------------------------------
 #p B3LYP/6-31+g(d,p) opt scrf=(smd,solvent=water)
 -------------------------------------------------

 --------------
 ch3o- solution
 --------------
 Symbolic Z-matrix:
 Charge = -1 Multiplicity = 1

 SCF Done:  E(RB3LYP) =  -115.239334406     A.U. after   10 cycles
 SCF Done:  E(RB3LYP) =  -115.245257773     A.U. after    9 cycles
 SCF Done:  E(RB3LYP) =  -115.245469453     A.U. after    8 cycles
 SCF Done:  E(RB3LYP) =  -115.245511082     A.U. after    8 cycles
 SCF Done:  E(RB3LYP) =  -115.245517046     A.U. after    7 cycles
 Optimization completed.
    -- Stationary point found.

                         Standard orientation:
 ---------------------------------------------------------------------
 Center     Atomic      Atomic             Coordinates (Angstroms)
 Number     Number       Type             X           Y           Z
 ---------------------------------------------------------------------
      1          6           0        0.000000    0.000000   -0.585615
      2          8           0        0.000000    0.000000    0.822219
      3          1           0        0.000000    1.021994   -1.021355
      4          1           0        0.885073   -0.510997   -1.021355
      5          1           0       -0.885073   -0.510997   -1.021355
 ---------------------------------------------------------------------

 The electronic state is 1-A1.
 Alpha  occ. eigenvalues --  -19.05364 -10.19183  -0.88834  -0.61167  -0.39106
 Alpha  occ. eigenvalues --   -0.39105  -0.34490  -0.19968  -0.19968
 Alpha virt. eigenvalues --    0.02522   0.04263   0.06580   0.06580   0.17057
 Alpha virt. eigenvalues --    0.21403   0.21403   0.22242   0.22243   0.24965
 Alpha virt. eigenvalues --    0.30097   0.32962   0.68308   0.68308   0.69194

 Mulliken atomic charges:
              1
     1  C   -0.179712
     2  O   -1.079059
     3  H    0.086257
     4  H    0.086257
     5  H    0.086257
 Sum of Mulliken atomic charges =  -1.00000

 Dipole moment (field-independent basis, Debye):
    X=              0.0000    Y=             -0.0000    Z=             -4.9367  Tot=              4.9367
 Quadrupole moment (field-independent basis, Debye-Ang):
   XX=            -16.3604   YY=            -16.3604   ZZ=            -21.0498
   XY=             -0.0000   XZ=             -0.0000   YZ=              0.0000

 Normal termination of Gaussian 09 at Mon Sep 16 17:45:09 2024.
