 Gaussian 09, Revision A.02,
 Gaussian 09:  EM64L-G09RevA.02 11-Jun-2009

 -----------------------------------------------
 #p b3pw91/aug-cc-pVDZ opt freq pop=full gfinput
 -----------------------------------------------

 ----------------------------------------------
 hydrogen (atom) with and aug-cc-pVDZ basis set
 ----------------------------------------------
 Symbolic Z-matrix:
 Charge =  0 Multiplicity = 2

 SCF Done:  E(UB3PW91) = -0.503545758037     A.U. after    6 cycles
 Optimization completed.
    -- Stationary point found.
 Normal termination of Gaussian 09 at Sat Aug 17 22:55:51 2024.

 ----------------------------------------------------------------------
 #P Geom=AllCheck Guess=TCheck SCRF=Check GenChk UB3PW91/Aug-CC-pVDZ Fr
 eq
 ----------------------------------------------------------------------

 ----------------------------------------------
 No Z-matrix found on checkpoint file.
 Cartesian coordinates read from the checkpoint file:
 /home/ospite/Desktop/MMfP/Project6/H/g09/DFT/B3PW91/Gau-16049.chk
 Charge =  0 Multiplicity = 2

                         Standard orientation:
 ---------------------------------------------------------------------
 Center     Atomic      Atomic             Coordinates (Angstroms)
 Number     Number       Type             X           Y           Z
 ---------------------------------------------------------------------
      1          1           0        0.000000    0.000000    0.000000
 ---------------------------------------------------------------------

 SCF Done:  E(UB3PW91) = -0.503545758037     A.U. after    1 cycles

 The electronic state is 2-A1G.
 Alpha  occ. eigenvalues --   -0.32604
 Alpha virt. eigenvalues --    0.03594   0.18059   0.18059   0.18059   0.54542
 Alpha virt. eigenvalues --    1.49816   1.49816   1.49816
  Beta virt. eigenvalues --   -0.04121   0.09710   0.28549   0.28549   0.28549

 Mulliken atomic charges:
              1
     1  H    0.000000
 Sum of Mulliken atomic charges =   0.00000

 Dipole moment (field-independent basis, Debye):
    X=              0.0000    Y=              0.0000    Z=              0.0000  Tot=              0.0000
 Quadrupole moment (field-independent basis, Debye-Ang):
   XX=             -1.4070   YY=             -1.4070   ZZ=             -1.4070
   XY=              0.0000   XZ=              0.0000   YZ=              0.0000

  Exact polarizability:   4.683   0.000   4.683  -0.000   0.000   4.683
 Approx polarizability:   3.926  -0.000   3.926  -0.000  -0.000   3.926

 - Thermochemistry -
 -------------------
 Temperature   298.150 Kelvin.  Pressure   1.00000 Atm.
 Atom     1 has atomic number  1 and mass   1.00783
 Molecular mass:     1.00783 amu.
 Zero-point vibrational energy          0.0 (Joules/Mol)
                                    0.00000 (Kcal/Mol)
 Vibrational temperatures:
          (Kelvin)

 Zero-point correction=                           0.000000 (Hartree/Particle)
 Thermal correction to Energy=                    0.001416
 Thermal correction to Enthalpy=                  0.002360
 Thermal correction to Gibbs Free Energy=        -0.010654
 Sum of electronic and zero-point Energies=             -0.503546
 Sum of electronic and thermal Energies=                -0.502129
 Sum of electronic and thermal Enthalpies=              -0.501185
 Sum of electronic and thermal Free Energies=           -0.514200

                     E (Thermal)             CV                S
                      KCal/Mol        Cal/Mol-Kelvin    Cal/Mol-Kelvin
 Total                    0.889              2.981             27.392
 Electronic               0.000              0.000              1.377
 Translational            0.889              2.981             26.014
 Rotational               0.000              0.000              0.000
 Vibrational              0.000              0.000              0.000

 Optimization completed.
    -- Stationary point found.
 Normal termination of Gaussian 09 at Sat Aug 17 22:55:54 2024.
