 Gaussian 09, Revision A.02,
 Gaussian 09:  EM64L-G09RevA.02 11-Jun-2009

 -------------------------------------------
 #p b3pw91/cc-pVQZ opt freq pop=full gfinput
 -------------------------------------------

 -------------------------------------
 hydogen (atom) with cc-pVQZ basis set
 -------------------------------------
 Symbolic Z-matrix:
 Charge =  0 Multiplicity = 2

 SCF Done:  E(UB3PW91) = -0.504153779343     A.U. after    6 cycles
 Optimization completed.
    -- Stationary point found.
 Normal termination of Gaussian 09 at Sun Aug 18 15:09:54 2024.

 --------------------------------------------------------------------
 #P Geom=AllCheck Guess=TCheck SCRF=Check GenChk UB3PW91/CC-pVQZ Freq
 --------------------------------------------------------------------

 -------------------------------------
 No Z-matrix found on checkpoint file.
 Cartesian coordinates read from the checkpoint file:
 /home/ospite/Desktop/MMfP/Project6/H/g09/DFT/B3PW91/Gau-7913.chk
 Charge =  0 Multiplicity = 2

                         Standard orientation:
 ---------------------------------------------------------------------
 Center     Atomic      Atomic             Coordinates (Angstroms)
 Number     Number       Type             X           Y           Z
 ---------------------------------------------------------------------
      1          1           0        0.000000    0.000000    0.000000
 ---------------------------------------------------------------------

 SCF Done:  E(UB3PW91) = -0.504153779343     A.U. after    1 cycles

 The electronic state is 2-A1G.
 Alpha  occ. eigenvalues --   -0.32627
 Alpha virt. eigenvalues --    0.18361   0.39008   0.39008   0.39008   1.26646
 Alpha virt. eigenvalues --    1.83839   1.83839   1.83839   1.83839   1.83839
 Alpha virt. eigenvalues --    2.09163   2.09163   2.09163   5.73617   5.73617

 Mulliken atomic charges:
              1
     1  H    0.000000
 Sum of Mulliken atomic charges =   0.00000

 Dipole moment (field-independent basis, Debye):
    X=              0.0000    Y=              0.0000    Z=              0.0000  Tot=              0.0000
 Quadrupole moment (field-independent basis, Debye-Ang):
   XX=             -1.3895   YY=             -1.3895   ZZ=             -1.3895
   XY=             -0.0000   XZ=             -0.0000   YZ=             -0.0000

  Exact polarizability:   2.855   0.000   2.855   0.000  -0.000   2.855
 Approx polarizability:   2.458  -0.000   2.458  -0.000  -0.000   2.458

 - Thermochemistry -
 -------------------
 Temperature   298.150 Kelvin.  Pressure   1.00000 Atm.
 Atom     1 has atomic number  1 and mass   1.00783
 Molecular mass:     1.00783 amu.
 Zero-point vibrational energy          0.0 (Joules/Mol)
                                    0.00000 (Kcal/Mol)
 Vibrational temperatures:
          (Kelvin)

 Zero-point correction=                           0.000000 (Hartree/Particle)
 Thermal correction to Energy=                    0.001416
 Thermal correction to Enthalpy=                  0.002360
 Thermal correction to Gibbs Free Energy=        -0.010654
 Sum of electronic and zero-point Energies=             -0.504154
 Sum of electronic and thermal Energies=                -0.502738
 Sum of electronic and thermal Enthalpies=              -0.501793
 Sum of electronic and thermal Free Energies=           -0.514808

                     E (Thermal)             CV                S
                      KCal/Mol        Cal/Mol-Kelvin    Cal/Mol-Kelvin
 Total                    0.889              2.981             27.392
 Electronic               0.000              0.000              1.377
 Translational            0.889              2.981             26.014
 Rotational               0.000              0.000              0.000
 Vibrational              0.000              0.000              0.000

 Optimization completed.
    -- Stationary point found.
 Normal termination of Gaussian 09 at Sun Aug 18 15:09:58 2024.
