 Gaussian 09, Revision A.02,
 Gaussian 09:  EM64L-G09RevA.02 11-Jun-2009

 ------------------------------------------------------------------
 #p b3lyp/cc-pVQZ opt freq symmetry=(follow,pg=Td) pop=full gfinput
 ------------------------------------------------------------------

 ------------------------------------------------------
 methane with imposed symmetry Td and cc-pVQZ basis set
 ------------------------------------------------------
 Symbolic Z-matrix:
 Charge =  0 Multiplicity = 1

 SCF Done:  E(RB3LYP) =  -40.5414955283     A.U. after    8 cycles
 SCF Done:  E(RB3LYP) =  -40.5415097439     A.U. after    5 cycles
 Optimization completed.
    -- Stationary point found.
 Normal termination of Gaussian 09 at Sun Aug 18 13:16:31 2024.

 -------------------------------------------------------------------
 #P Geom=AllCheck Guess=TCheck SCRF=Check GenChk RB3LYP/CC-pVQZ Freq
 -------------------------------------------------------------------

 methane with imposed symmetry Td and cc-pVQZ basis set
 ------------------------------------------------------
 Redundant internal coordinates taken from checkpoint file:
 /home/ospite/Desktop/MMfP/Project6/CH4/g09/DFT/B3LYP/Gau-5963.chk
 Charge =  0 Multiplicity = 1

                         Standard orientation:
 ---------------------------------------------------------------------
 Center     Atomic      Atomic             Coordinates (Angstroms)
 Number     Number       Type             X           Y           Z
 ---------------------------------------------------------------------
      1          6           0        0.000000    0.000000    0.000000
      2          1           0        0.627935    0.627935    0.627935
      3          1           0       -0.627935   -0.627935    0.627935
      4          1           0       -0.627935    0.627935   -0.627935
      5          1           0        0.627935   -0.627935   -0.627935
 ---------------------------------------------------------------------

 SCF Done:  E(RB3LYP) =  -40.5415097439     A.U. after    1 cycles

 The electronic state is 1-A1.
 Alpha  occ. eigenvalues --  -10.15244  -0.69716  -0.39581  -0.39581  -0.39581
 Alpha virt. eigenvalues --    0.02883   0.10547   0.10547   0.10547   0.17347
 Alpha virt. eigenvalues --    0.17347   0.17347   0.36109   0.37702   0.37702
 Alpha virt. eigenvalues --    0.37702   0.38343   0.38343   0.47385   0.66900

 Mulliken atomic charges:
              1
     1  C   -0.367500
     2  H    0.091875
     3  H    0.091875
     4  H    0.091875
     5  H    0.091875
 Sum of Mulliken atomic charges =  -0.00000

 Dipole moment (field-independent basis, Debye):
    X=             -0.0000    Y=              0.0000    Z=              0.0000  Tot=              0.0000
 Quadrupole moment (field-independent basis, Debye-Ang):
   XX=             -8.4764   YY=             -8.4764   ZZ=             -8.4764
   XY=              0.0000   XZ=              0.0000   YZ=              0.0000

  Exact polarizability:  16.013   0.000  16.013   0.000   0.000  16.013
 Approx polarizability:  19.991   0.000  19.991   0.000   0.000  19.991

 Error termination via Lnk1e in /programs/64bit/g09/g09-gfortran/bin/l701.exe at Sun Aug 18 13:27:10 2024.
