 Gaussian 09, Revision A.02,
 Gaussian 09:  EM64L-G09RevA.02 11-Jun-2009

 ------------------------------------------------------------------
 #p b3lyp/cc-pVTZ opt freq symmetry=(follow,pg=Td) pop=full gfinput
 ------------------------------------------------------------------

 ------------------------------------------------------
 methane with imposed symmetry Td and cc-pVTZ basis set
 ------------------------------------------------------
 Symbolic Z-matrix:
 Charge =  0 Multiplicity = 1

 SCF Done:  E(RB3LYP) =  -40.5382364971     A.U. after    8 cycles
 SCF Done:  E(RB3LYP) =  -40.5382435688     A.U. after    5 cycles
 Optimization completed.
    -- Stationary point found.
 Normal termination of Gaussian 09 at Sun Aug 18 00:32:55 2024.

 -------------------------------------------------------------------
 #P Geom=AllCheck Guess=TCheck SCRF=Check GenChk RB3LYP/CC-pVTZ Freq
 -------------------------------------------------------------------

 methane with imposed symmetry Td and cc-pVTZ basis set
 ------------------------------------------------------
 Redundant internal coordinates taken from checkpoint file:
 /home/ospite/Desktop/MMfP/Project6/CH4/g09/DFT/B3LYP/Gau-19208.chk
 Charge =  0 Multiplicity = 1

                         Standard orientation:
 ---------------------------------------------------------------------
 Center     Atomic      Atomic             Coordinates (Angstroms)
 Number     Number       Type             X           Y           Z
 ---------------------------------------------------------------------
      1          6           0        0.000000    0.000000    0.000000
      2          1           0        0.628339    0.628339    0.628339
      3          1           0       -0.628339   -0.628339    0.628339
      4          1           0       -0.628339    0.628339   -0.628339
      5          1           0        0.628339   -0.628339   -0.628339
 ---------------------------------------------------------------------

 SCF Done:  E(RB3LYP) =  -40.5382435688     A.U. after    1 cycles

 The electronic state is 1-A1.
 Alpha  occ. eigenvalues --  -10.15511  -0.69685  -0.39534  -0.39534  -0.39534
 Alpha virt. eigenvalues --    0.04444   0.12028   0.12028   0.12028   0.23705
 Alpha virt. eigenvalues --    0.23705   0.23705   0.46615   0.46615   0.46615
 Alpha virt. eigenvalues --    0.47085   0.50567   0.50567   0.58542   0.87832

 Mulliken atomic charges:
              1
     1  C   -0.406942
     2  H    0.101736
     3  H    0.101736
     4  H    0.101736
     5  H    0.101736
 Sum of Mulliken atomic charges =   0.00000

 Dipole moment (field-independent basis, Debye):
    X=              0.0000    Y=              0.0000    Z=              0.0000  Tot=              0.0000
 Quadrupole moment (field-independent basis, Debye-Ang):
   XX=             -8.4729   YY=             -8.4729   ZZ=             -8.4729
   XY=              0.0000   XZ=              0.0000   YZ=              0.0000

  Exact polarizability:  15.266   0.000  15.266   0.000   0.000  15.266
 Approx polarizability:  19.020   0.000  19.020   0.000   0.000  19.020

                     1                      2                      3
                    T2                     T2                     T2
 Frequencies --  1342.4346              1342.4346              1342.4346
 Red. masses --     1.1799                 1.1799                 1.1799
 Frc consts  --     1.2528                 1.2528                 1.2528
 IR Inten    --    12.4952                12.4952                12.4952

                     4                      5                      6
                     E                      E                     A1
 Frequencies --  1560.3060              1560.3060              3029.0757
 Red. masses --     1.0078                 1.0078                 1.0078
 Frc consts  --     1.4456                 1.4456                 5.4482
 IR Inten    --     0.0000                 0.0000                 0.0000

                     7                      8                      9
                    T2                     T2                     T2
 Frequencies --  3131.9255              3131.9255              3131.9255
 Red. masses --     1.1009                 1.1009                 1.1009
 Frc consts  --     6.3623                 6.3623                 6.3623
 IR Inten    --    24.3935                24.3935                24.3935

 - Thermochemistry -
 -------------------
 Temperature   298.150 Kelvin.  Pressure   1.00000 Atm.
 Atom     1 has atomic number  6 and mass  12.00000

 Molecular mass:    16.03130 amu.
 Principal axes and moments of inertia in atomic units:
                           1         2         3
     Eigenvalues --    11.36738  11.36738  11.36738
           X            0.07195   0.95119  -0.30012
           Y            0.30250   0.26591   0.91531
           Z            0.95043  -0.15664  -0.26860
 This molecule is a spherical top.
 Rotational symmetry number 12.
 Rotational temperatures (Kelvin)      7.61951     7.61951     7.61951
 Rotational constants (GHZ):         158.76493   158.76493   158.76493
 Zero-point vibrational energy     117071.1 (Joules/Mol)
                                   27.98068 (Kcal/Mol)
 Vibrational temperatures:   1931.46  1931.46  1931.46  2244.93  2244.93
          (Kelvin)           4358.16  4506.14  4506.14  4506.14

 Zero-point correction=                           0.044590 (Hartree/Particle)
 Thermal correction to Energy=                    0.047459
 Thermal correction to Enthalpy=                  0.048403
 Thermal correction to Gibbs Free Energy=         0.027279
 Sum of electronic and zero-point Energies=            -40.493654
 Sum of electronic and thermal Energies=               -40.490785
 Sum of electronic and thermal Enthalpies=             -40.489841
 Sum of electronic and thermal Free Energies=          -40.510965

                     E (Thermal)             CV                S
                      KCal/Mol        Cal/Mol-Kelvin    Cal/Mol-Kelvin
 Total                   29.781              6.469             44.459
 Electronic               0.000              0.000              0.000
 Translational            0.889              2.981             34.261
 Rotational               0.889              2.981             10.110
 Vibrational             28.003              0.507              0.087

 Optimization completed.
    -- Stationary point found.
 Normal termination of Gaussian 09 at Sun Aug 18 00:34:54 2024.
