 Gaussian 09, Revision A.02,
 Gaussian 09:  EM64L-G09RevA.02 11-Jun-2009

 -----------------------------------------------------------------
 #p b3lyp/STO-3G opt freq symmetry=(follow,pg=Td) pop=full gfinput
 -----------------------------------------------------------------

 ----------------------------------------------------------
 methane with imposed symmetry and hf/STO-3G basis function
 ----------------------------------------------------------
 Symbolic Z-matrix:
 Charge =  0 Multiplicity = 1

 SCF Done:  E(RB3LYP) =  -40.0387852367     A.U. after    8 cycles
 SCF Done:  E(RB3LYP) =  -40.0389189468     A.U. after    5 cycles
 SCF Done:  E(RB3LYP) =  -40.0389245125     A.U. after    5 cycles
 Optimization completed.
    -- Stationary point found.
 Normal termination of Gaussian 09 at Sat Aug 17 15:03:40 2024.

 ------------------------------------------------------------------
 #P Geom=AllCheck Guess=TCheck SCRF=Check GenChk RB3LYP/STO-3G Freq
 ------------------------------------------------------------------

 methane with imposed symmetry and hf/STO-3G basis function
 ----------------------------------------------------------
 Redundant internal coordinates taken from checkpoint file:
 /home/ospite/Desktop/MMfP/Project6/CH4/g09/DFT/Gau-4780.chk
 Charge =  0 Multiplicity = 1

                         Standard orientation:
 ---------------------------------------------------------------------
 Center     Atomic      Atomic             Coordinates (Angstroms)
 Number     Number       Type             X           Y           Z
 ---------------------------------------------------------------------
      1          6           0        0.000000    0.000000    0.000000
      2          1           0        0.633264    0.633264    0.633264
      3          1           0       -0.633264   -0.633264    0.633264
      4          1           0       -0.633264    0.633264   -0.633264
      5          1           0        0.633264   -0.633264   -0.633264
 ---------------------------------------------------------------------

 SCF Done:  E(RB3LYP) =  -40.0389245125     A.U. after    1 cycles

 The electronic state is 1-A1.
 Alpha  occ. eigenvalues --   -9.99634  -0.66075  -0.35994  -0.35994  -0.35994
 Alpha virt. eigenvalues --    0.45514   0.45514   0.45514   0.48852

 Mulliken atomic charges:
              1
     1  C   -0.311353
     2  H    0.077838
     3  H    0.077838
     4  H    0.077838
     5  H    0.077838
 Sum of Mulliken atomic charges =   0.00000

 Dipole moment (field-independent basis, Debye):
    X=              0.0000    Y=             -0.0000    Z=              0.0000  Tot=              0.0000
 Quadrupole moment (field-independent basis, Debye-Ang):
   XX=             -7.7365   YY=             -7.7365   ZZ=             -7.7365
   XY=              0.0000   XZ=             -0.0000   YZ=             -0.0000

  Exact polarizability:   5.645   0.000   5.645  -0.000   0.000   5.645
 Approx polarizability:   6.787   0.000   6.787  -0.000   0.000   6.787

                     1                      2                      3
                    T2                     T2                     T2
 Frequencies --  1535.8514              1535.8514              1535.8514
 Red. masses --     1.1738                 1.1738                 1.1738
 Frc consts  --     1.6313                 1.6313                 1.6313
 IR Inten    --    12.1194                12.1194                12.1194

                     4                      5                      6
                     E                      E                     A1
 Frequencies --  1763.0040              1763.0040              3284.0838
 Red. masses --     1.0078                 1.0078                 1.0078
 Frc consts  --     1.8456                 1.8456                 6.4042
 IR Inten    --     0.0000                 0.0000                 0.0000

                     7                      8                      9
                    T2                     T2                     T2
 Frequencies --  3522.6978              3522.6978              3522.6978
 Red. masses --     1.1062                 1.1062                 1.1062
 Frc consts  --     8.0882                 8.0882                 8.0882
 IR Inten    --     0.8459                 0.8459                 0.8459

 - Thermochemistry -
 -------------------
 Temperature   298.150 Kelvin.  Pressure   1.00000 Atm.
 Atom     1 has atomic number  6 and mass  12.00000

 Molecular mass:    16.03130 amu.
 Principal axes and moments of inertia in atomic units:
                           1         2         3
     Eigenvalues --    11.54628  11.54628  11.54628
           X            0.27529  -0.66104   0.69802
           Y            0.94051   0.03478  -0.33799
           Z            0.19915   0.74954   0.63129
 This molecule is a spherical top.
 Rotational symmetry number 12.
 Rotational temperatures (Kelvin)      7.50144     7.50144     7.50144
 Rotational constants (GHZ):         156.30494   156.30494   156.30494
 Zero-point vibrational energy     131503.9 (Joules/Mol)
                                   31.43019 (Kcal/Mol)
 Vibrational temperatures:   2209.74  2209.74  2209.74  2536.57  2536.57
          (Kelvin)           4725.06  5068.37  5068.37  5068.37

 Zero-point correction=                           0.050087 (Hartree/Particle)
 Thermal correction to Energy=                    0.052936
 Thermal correction to Enthalpy=                  0.053880
 Thermal correction to Gibbs Free Energy=         0.032757
 Sum of electronic and zero-point Energies=            -39.988837
 Sum of electronic and thermal Energies=               -39.985989
 Sum of electronic and thermal Enthalpies=             -39.985045
 Sum of electronic and thermal Free Energies=          -40.006167

                     E (Thermal)             CV                S
                      KCal/Mol        Cal/Mol-Kelvin    Cal/Mol-Kelvin
 Total                   33.218              6.218             44.456
 Electronic               0.000              0.000              0.000
 Translational            0.889              2.981             34.261
 Rotational               0.889              2.981             10.157
 Vibrational             31.440              0.256              0.038

 Optimization completed.
    -- Stationary point found.
 Normal termination of Gaussian 09 at Sat Aug 17 15:03:44 2024.
