 Gaussian 09, Revision A.02,
 Gaussian 09:  EM64L-G09RevA.02 11-Jun-2009

 ------------------------------------------------------------------
 #p b3lyp/cc-pVDZ opt freq symmetry=(follow,pg=Td) pop=full gfinput
 ------------------------------------------------------------------

 ------------------------------------------------------
 methane with imposed symmetry Td and cc-pVDZ basis set
 ------------------------------------------------------
 Symbolic Z-matrix:
 Charge =  0 Multiplicity = 1

 SCF Done:  E(RB3LYP) =  -40.5161031016     A.U. after    9 cycles
 SCF Done:  E(RB3LYP) =  -40.5163533717     A.U. after    6 cycles
 Optimization completed.
    -- Stationary point found.
 Normal termination of Gaussian 09 at Sun Aug 18 00:30:34 2024.

 -------------------------------------------------------------------
 #P Geom=AllCheck Guess=TCheck SCRF=Check GenChk RB3LYP/CC-pVDZ Freq
 -------------------------------------------------------------------

 methane with imposed symmetry Td and cc-pVDZ basis set
 ------------------------------------------------------
 Redundant internal coordinates taken from checkpoint file:
 /home/ospite/Desktop/MMfP/Project6/CH4/g09/DFT/B3LYP/Gau-19124.chk
 Charge =  0 Multiplicity = 1

                         Standard orientation:
 ---------------------------------------------------------------------
 Center     Atomic      Atomic             Coordinates (Angstroms)
 Number     Number       Type             X           Y           Z
 ---------------------------------------------------------------------
      1          6           0        0.000000    0.000000    0.000000
      2          1           0        0.635219    0.635219    0.635219
      3          1           0       -0.635219   -0.635219    0.635219
      4          1           0       -0.635219    0.635219   -0.635219
      5          1           0        0.635219   -0.635219   -0.635219
 ---------------------------------------------------------------------

 SCF Done:  E(RB3LYP) =  -40.5163533717     A.U. after    1 cycles

 The electronic state is 1-A1.
 Alpha  occ. eigenvalues --  -10.17477  -0.69019  -0.38841  -0.38841  -0.38841
 Alpha virt. eigenvalues --    0.07295   0.14278   0.14278   0.14278   0.41372
 Alpha virt. eigenvalues --    0.41372   0.41372   0.64980   0.64980   0.64980
 Alpha virt. eigenvalues --    0.67671   0.90080   0.90080   1.04144   1.41462

 Mulliken atomic charges:
              1
     1  C   -0.127897
     2  H    0.031974
     3  H    0.031974
     4  H    0.031974
     5  H    0.031974
 Sum of Mulliken atomic charges =  -0.00000

 Dipole moment (field-independent basis, Debye):
    X=              0.0000    Y=              0.0000    Z=              0.0000  Tot=              0.0000
 Quadrupole moment (field-independent basis, Debye-Ang):
   XX=             -8.3290   YY=             -8.3290   ZZ=             -8.3290
   XY=              0.0000   XZ=              0.0000   YZ=              0.0000

  Exact polarizability:  13.417   0.000  13.417   0.000   0.000  13.417
 Approx polarizability:  16.321  -0.000  16.321   0.000   0.000  16.321

                     1                      2                      3
                    T2                     T2                     T2
 Frequencies --  1310.9554              1310.9554              1310.9554
 Red. masses --     1.1790                 1.1790                 1.1790
 Frc consts  --     1.1938                 1.1938                 1.1938
 IR Inten    --    11.9831                11.9831                11.9831

                     4                      5                      6
                     E                      E                     A1
 Frequencies --  1531.9666              1531.9666              3024.9849
 Red. masses --     1.0078                 1.0078                 1.0078
 Frc consts  --     1.3936                 1.3936                 5.4335
 IR Inten    --     0.0000                 0.0000                 0.0000

                     7                      8                      9
                    T2                     T2                     T2
 Frequencies --  3146.8244              3146.8244              3146.8244
 Red. masses --     1.1016                 1.1016                 1.1016
 Frc consts  --     6.4273                 6.4273                 6.4273
 IR Inten    --    20.9932                20.9932                20.9932

 - Thermochemistry -
 -------------------
 Temperature   298.150 Kelvin.  Pressure   1.00000 Atm.
 Atom     1 has atomic number  6 and mass  12.00000

 Molecular mass:    16.03130 amu.
 Principal axes and moments of inertia in atomic units:
                           1         2         3
     Eigenvalues --    11.61770  11.61770  11.61770
           X            0.16864   0.78762   0.59263
           Y            0.43600  -0.59883   0.67179
           Z            0.88400   0.14510  -0.44439
 This molecule is a spherical top.
 Rotational symmetry number 12.
 Rotational temperatures (Kelvin)      7.45533     7.45533     7.45533
 Rotational constants (GHZ):         155.34405   155.34405   155.34405
 Zero-point vibrational energy     116410.2 (Joules/Mol)
                                   27.82269 (Kcal/Mol)
 Vibrational temperatures:   1886.17  1886.17  1886.17  2204.16  2204.16
          (Kelvin)           4352.27  4527.57  4527.57  4527.57

 Zero-point correction=                           0.044338 (Hartree/Particle)
 Thermal correction to Energy=                    0.047212
 Thermal correction to Enthalpy=                  0.048156
 Thermal correction to Gibbs Free Energy=         0.026995
 Sum of electronic and zero-point Energies=            -40.472015
 Sum of electronic and thermal Energies=               -40.469142
 Sum of electronic and thermal Enthalpies=             -40.468198
 Sum of electronic and thermal Free Energies=          -40.489358

                     E (Thermal)             CV                S
                      KCal/Mol        Cal/Mol-Kelvin    Cal/Mol-Kelvin
 Total                   29.626              6.524             44.536
 Electronic               0.000              0.000              0.000
 Translational            0.889              2.981             34.261
 Rotational               0.889              2.981             10.175
 Vibrational             27.848              0.563              0.099

 Optimization completed.
    -- Stationary point found.
 Normal termination of Gaussian 09 at Sun Aug 18 00:30:58 2024.
