 Gaussian 09, Revision A.02,
 Gaussian 09:  EM64L-G09RevA.02 11-Jun-2009

 -------------------------------------------------------------------
 #p b3lyp/cc-pVTZ opt freq symmetry=(follow,pg=C3v) pop=full gfinput
 -------------------------------------------------------------------

 --------------------------------------------------
 methyl with imposed symmetry and cc-pVTZ basis set
 --------------------------------------------------
 Symbolic Z-matrix:
 Charge =  0 Multiplicity = 2

 SCF Done:  E(UB3LYP) =  -39.8583942029     A.U. after   10 cycles
 SCF Done:  E(UB3LYP) =  -39.8586716579     A.U. after    9 cycles
 Optimization completed.
    -- Stationary point found.
 Normal termination of Gaussian 09 at Sat Aug 17 23:31:21 2024.

 -------------------------------------------------------------------
 #P Geom=AllCheck Guess=TCheck SCRF=Check GenChk UB3LYP/CC-pVTZ Freq
 -------------------------------------------------------------------

 methyl with imposed symmetry and cc-pVTZ basis set
 --------------------------------------------------
 Redundant internal coordinates taken from checkpoint file:
 /home/ospite/Desktop/MMfP/Project6/CH3/g09/DFT/B3LYP/Gau-17583.chk
 Charge =  0 Multiplicity = 2

                         Standard orientation:
 ---------------------------------------------------------------------
 Center     Atomic      Atomic             Coordinates (Angstroms)
 Number     Number       Type             X           Y           Z
 ---------------------------------------------------------------------
      1          6           0        0.000000    0.000000   -0.000000
      2          1           0       -0.000013   -1.077742    0.000000
      3          1           0        0.933362    0.538859    0.000000
      4          1           0       -0.933348    0.538882   -0.000000
 ---------------------------------------------------------------------

 SCF Done:  E(UB3LYP) =  -39.8586716579     A.U. after    1 cycles

 The electronic state is 2-A".
 Alpha  occ. eigenvalues --  -10.18467  -0.68935  -0.42456  -0.42456  -0.23561
 Alpha virt. eigenvalues --    0.04942   0.11754   0.11754   0.24728   0.24729
 Alpha virt. eigenvalues --    0.30070   0.33058   0.47083   0.47957   0.47957
 Alpha virt. eigenvalues --    0.55731   0.55731   0.83515   0.87830   0.89529

  Beta  occ. eigenvalues --  -10.17048  -0.64975  -0.41509  -0.41509
  Beta virt. eigenvalues --   -0.07234   0.05657   0.11984   0.11984   0.24934
  Beta virt. eigenvalues --    0.24934   0.35840   0.35940   0.48544   0.48544
  Beta virt. eigenvalues --    0.48820   0.58471   0.58471   0.83285   0.89954

 Mulliken atomic charges:
              1
     1  C   -0.364457
     2  H    0.121496
     3  H    0.121481
     4  H    0.121481
 Sum of Mulliken atomic charges =  -0.00000

 Dipole moment (field-independent basis, Debye):
    X=              0.0000    Y=             -0.0000    Z=              0.0000  Tot=              0.0000
 Quadrupole moment (field-independent basis, Debye-Ang):
   XX=             -7.2516   YY=             -7.2516   ZZ=             -8.9802
   XY=              0.0000   XZ=              0.0000   YZ=              0.0000

  Exact polarizability:  14.018   0.000  14.018  -0.000  -0.000  10.354
 Approx polarizability:  16.908  -0.000  16.908   0.000   0.000  12.504

                     1                      2                      3
                    A"                     A'                     A'
 Frequencies --   524.4656              1406.8953              1406.9428
 Red. masses --     1.2356                 1.1023                 1.1023
 Frc consts  --     0.2002                 1.2855                 1.2856
 IR Inten    --    76.2291                 2.9294                 2.9309

                     4                      5                      6
                    A'                     A'                     A'
 Frequencies --  3111.3628              3287.9663              3288.0189
 Red. masses --     1.0078                 1.1181                 1.1181
 Frc consts  --     5.7483                 7.1219                 7.1221
 IR Inten    --     0.0000                 5.0712                 5.0707

 - Thermochemistry -
 -------------------
 Temperature   298.150 Kelvin.  Pressure   1.00000 Atm.
 Atom     1 has atomic number  6 and mass  12.00000

 Molecular mass:    15.02348 amu.
 Principal axes and moments of inertia in atomic units:
                           1         2         3
     Eigenvalues --     6.27052   6.27056  12.54108
           X            1.00000   0.00001   0.00000
           Y           -0.00001   1.00000   0.00000
           Z            0.00000  -0.00000   1.00000
 This molecule is an asymmetric top.
 Rotational symmetry number  1.
 Rotational temperatures (Kelvin)     13.81286    13.81277     6.90641
 Rotational constants (GHZ):         287.81369   287.81168   143.90634
 Zero-point vibrational energy      77910.7 (Joules/Mol)
                                   18.62110 (Kcal/Mol)
 Warning -- explicit consideration of   1 degrees of freedom as
           vibrations may cause significant error
 Vibrational temperatures:    754.59  2024.21  2024.27  4476.55  4730.64
          (Kelvin)           4730.72

 Zero-point correction=                           0.029675 (Hartree/Particle)
 Thermal correction to Energy=                    0.032728
 Thermal correction to Enthalpy=                  0.033672
 Thermal correction to Gibbs Free Energy=         0.009895
 Sum of electronic and zero-point Energies=            -39.828997
 Sum of electronic and thermal Energies=               -39.825943
 Sum of electronic and thermal Enthalpies=             -39.824999
 Sum of electronic and thermal Free Energies=          -39.848777

                     E (Thermal)             CV                S
                      KCal/Mol        Cal/Mol-Kelvin    Cal/Mol-Kelvin
 Total                   20.537              7.364             50.044
 Electronic               0.000              0.000              1.377
 Translational            0.889              2.981             34.068
 Rotational               0.889              2.981             13.964
 Vibrational             18.760              1.403              0.635
 Vibration     1          0.879              1.196              0.600

 Optimization completed.
    -- Stationary point found.
 Normal termination of Gaussian 09 at Sat Aug 17 23:34:31 2024.
