 Gaussian 09, Revision A.02,
 Gaussian 09:  EM64L-G09RevA.02 11-Jun-2009

 -------------------------------------------------------------------
 #p b3lyp/cc-pVDZ opt freq symmetry=(follow,pg=C3v) pop=full gfinput
 -------------------------------------------------------------------

 --------------------------------------------------
 methyl with imposed symmetry and cc-pVDZ basis set
 --------------------------------------------------
 Symbolic Z-matrix:
 Charge =  0 Multiplicity = 2

 SCF Done:  E(UB3LYP) =  -39.8390638092     A.U. after   10 cycles
 SCF Done:  E(UB3LYP) =  -39.8390649442     A.U. after    6 cycles
 Optimization completed.
    -- Stationary point found.
 Normal termination of Gaussian 09 at Sat Aug 17 23:28:49 2024.

 -------------------------------------------------------------------
 #P Geom=AllCheck Guess=TCheck SCRF=Check GenChk UB3LYP/CC-pVDZ Freq
 -------------------------------------------------------------------

 methyl with imposed symmetry and cc-pVDZ basis set
 --------------------------------------------------
 Redundant internal coordinates taken from checkpoint file:
 /home/ospite/Desktop/MMfP/Project6/CH3/g09/DFT/B3LYP/Gau-17483.chk
 Charge =  0 Multiplicity = 2

                         Standard orientation:
 ---------------------------------------------------------------------
 Center     Atomic      Atomic             Coordinates (Angstroms)
 Number     Number       Type             X           Y           Z
 ---------------------------------------------------------------------
      1          6           0        0.000000    0.000001    0.000000
      2          1           0       -0.000005    1.090802    0.000000
      3          1           0       -0.944661   -0.545407   -0.000000
      4          1           0        0.944666   -0.545399    0.000000
 ---------------------------------------------------------------------

 SCF Done:  E(UB3LYP) =  -39.8390649442     A.U. after    1 cycles

 The electronic state is 2-A".
 Alpha  occ. eigenvalues --  -10.19881  -0.68181  -0.41600  -0.41600  -0.22974
 Alpha virt. eigenvalues --    0.07298   0.14176   0.14176   0.43605   0.43605
 Alpha virt. eigenvalues --    0.47347   0.48785   0.65518   0.65518   0.85505
 Alpha virt. eigenvalues --    0.96117   0.96117   1.35632   1.45153   1.45153

  Beta  occ. eigenvalues --  -10.18454  -0.64104  -0.40595  -0.40595
  Beta virt. eigenvalues --   -0.05989   0.08365   0.14589   0.14589   0.43904
  Beta virt. eigenvalues --    0.43905   0.51601   0.54797   0.66279   0.66279
  Beta virt. eigenvalues --    0.88366   0.99889   0.99889   1.35272   1.45480

 Mulliken atomic charges:
              1
     1  C   -0.151171
     2  H    0.050391
     3  H    0.050390
     4  H    0.050390
 Sum of Mulliken atomic charges =  -0.00000

 Dipole moment (field-independent basis, Debye):
    X=              0.0000    Y=              0.0000    Z=             -0.0000  Tot=              0.0000
 Quadrupole moment (field-independent basis, Debye-Ang):
   XX=             -7.1223   YY=             -7.1223   ZZ=             -8.7021
   XY=             -0.0000   XZ=             -0.0000   YZ=              0.0000

  Exact polarizability:  12.568  -0.000  12.568  -0.000   0.000   6.827
 Approx polarizability:  14.858  -0.000  14.858  -0.000   0.000   8.286

                     1                      2                      3
                    A"                     A'                     A'
 Frequencies --   462.5943              1370.5219              1370.5465
 Red. masses --     1.2356                 1.1021                 1.1021
 Frc consts  --     0.1558                 1.2197                 1.2198
 IR Inten    --    67.9640                 3.1040                 3.1069

                     4                      5                      6
                    A'                     A'                     A'
 Frequencies --  3101.0773              3294.1702              3294.1756
 Red. masses --     1.0078                 1.1183                 1.1183
 Frc consts  --     5.7103                 7.1500                 7.1499
 IR Inten    --     0.0000                 3.5072                 3.5087

 - Thermochemistry -
 -------------------
 Temperature   298.150 Kelvin.  Pressure   1.00000 Atm.
 Atom     1 has atomic number  6 and mass  12.00000

 Molecular mass:    15.02348 amu.
 Principal axes and moments of inertia in atomic units:
                           1         2         3
     Eigenvalues --     6.42343   6.42343  12.84686
           X            1.00000   0.00001   0.00000
           Y           -0.00001   1.00000   0.00000
           Z            0.00000  -0.00000   1.00000
 This molecule is an oblate symmetric top.
 Rotational symmetry number  1.
 Rotational temperatures (Kelvin)     13.48404    13.48404     6.74202
 Rotational constants (GHZ):         280.96222   280.96217   140.48110
 Zero-point vibrational energy      77117.8 (Joules/Mol)
                                   18.43159 (Kcal/Mol)
 Warning -- explicit consideration of   1 degrees of freedom as
           vibrations may cause significant error
 Vibrational temperatures:    665.57  1971.87  1971.91  4461.75  4739.57
          (Kelvin)           4739.58

 Zero-point correction=                           0.029373 (Hartree/Particle)
 Thermal correction to Energy=                    0.032475
 Thermal correction to Enthalpy=                  0.033419
 Thermal correction to Gibbs Free Energy=         0.009530
 Sum of electronic and zero-point Energies=            -39.809692
 Sum of electronic and thermal Energies=               -39.806590
 Sum of electronic and thermal Enthalpies=             -39.805646
 Sum of electronic and thermal Free Energies=          -39.829535

                     E (Thermal)             CV                S
                      KCal/Mol        Cal/Mol-Kelvin    Cal/Mol-Kelvin
 Total                   20.379              7.529             50.280
 Electronic               0.000              0.000              1.377
 Translational            0.889              2.981             34.068
 Rotational               0.889              2.981             14.036
 Vibrational             18.601              1.567              0.799
 Vibration     1          0.820              1.333              0.759

 Optimization completed.
    -- Stationary point found.
 Normal termination of Gaussian 09 at Sat Aug 17 23:29:23 2024.
