 Gaussian 09, Revision A.02,
 Gaussian 09:  EM64L-G09RevA.02 11-Jun-2009

 -----------------------------------------------------------------
 #p b3lyp/6-31G opt freq symmetry=(follow,pg=C3v) pop=full gfinput
 -----------------------------------------------------------------

 -----------------------------------------------------------
 methyl with imposed symmetry Td and hf/6-31G basis function
 -----------------------------------------------------------
 Symbolic Z-matrix:
 Charge =  0 Multiplicity = 2

 SCF Done:  E(UB3LYP) =  -39.8310727207     A.U. after   11 cycles
 SCF Done:  E(UB3LYP) =  -39.8311736703     A.U. after    7 cycles
 Optimization completed.
    -- Stationary point found.
 Normal termination of Gaussian 09 at Sat Aug 17 17:57:10 2024.

 -----------------------------------------------------------------
 #P Geom=AllCheck Guess=TCheck SCRF=Check GenChk UB3LYP/6-31G Freq
 -----------------------------------------------------------------

 methyl with imposed symmetry Td and hf/6-31G basis function
 -----------------------------------------------------------
 Redundant internal coordinates taken from checkpoint file:
 /home/ospite/Desktop/MMfP/Project6/CH3/g09/DFT/Gau-8720.chk
 Charge =  0 Multiplicity = 2

                         Standard orientation:
 ---------------------------------------------------------------------
 Center     Atomic      Atomic             Coordinates (Angstroms)
 Number     Number       Type             X           Y           Z
 ---------------------------------------------------------------------
      1          6           0       -0.000000    0.000001    0.000000
      2          1           0       -0.000001   -1.082464   -0.000000
      3          1           0        0.937446    0.541230   -0.000000
      4          1           0       -0.937445    0.541231    0.000000
 ---------------------------------------------------------------------

 SCF Done:  E(UB3LYP) =  -39.8311736703     A.U. after    1 cycles

 The electronic state is 2-A".
 Alpha  occ. eigenvalues --  -10.18554  -0.68373  -0.41816  -0.41816  -0.22457
 Alpha virt. eigenvalues --    0.11432   0.18103   0.18103   0.53686   0.55684
 Alpha virt. eigenvalues --    0.55684   0.72291   0.95697   0.95697   0.96815
  Beta  occ. eigenvalues --  -10.17115  -0.64096  -0.40783  -0.40783
  Beta virt. eigenvalues --   -0.05101   0.12982   0.18663   0.18663   0.56568
  Beta virt. eigenvalues --    0.56568   0.61332   0.74106   0.95989   0.95989
  Beta virt. eigenvalues --    0.99414

 Mulliken atomic charges:
              1
     1  C   -0.425123
     2  H    0.141709
     3  H    0.141707
     4  H    0.141707
 Sum of Mulliken atomic charges =  -0.00000

 Dipole moment (field-independent basis, Debye):
    X=             -0.0000    Y=             -0.0000    Z=             -0.0000  Tot=              0.0000
 Quadrupole moment (field-independent basis, Debye-Ang):
   XX=             -7.0368   YY=             -7.0368   ZZ=             -8.6585
   XY=             -0.0000   XZ=             -0.0000   YZ=             -0.0000

  Exact polarizability:  11.648   0.000  11.648   0.000  -0.000   4.477
 Approx polarizability:  13.303   0.000  13.303  -0.000  -0.000   4.590

                     1                      2                      3
                    A"                     A'                     A'
 Frequencies --   538.4384              1438.2317              1438.3123
 Red. masses --     1.2356                 1.1034                 1.1034
 Frc consts  --     0.2111                 1.3448                 1.3449
 IR Inten    --   107.4529                 4.6326                 4.6352

                     4                      5                      6
                    A'                     A'                     A'
 Frequencies --  3137.0560              3326.1262              3326.1657
 Red. masses --     1.0078                 1.1169                 1.1169
 Frc consts  --     5.8436                 7.2805                 7.2807
 IR Inten    --     0.0000                10.8212                10.8215

 - Thermochemistry -
 -------------------
 Temperature   298.150 Kelvin.  Pressure   1.00000 Atm.
 Atom     1 has atomic number  6 and mass  12.00000

 Molecular mass:    15.02348 amu.
 Principal axes and moments of inertia in atomic units:
                           1         2         3
     Eigenvalues --     6.32558   6.32565  12.65123
           X            1.00000   0.00000   0.00000
           Y           -0.00000   1.00000   0.00000
           Z            0.00000  -0.00000   1.00000
 This molecule is an asymmetric top.
 Rotational symmetry number  1.
 Rotational temperatures (Kelvin)     13.69263    13.69249     6.84628
 Rotational constants (GHZ):         285.30837   285.30544   142.65345
 Zero-point vibrational energy      78979.4 (Joules/Mol)
                                   18.87654 (Kcal/Mol)
 Warning -- explicit consideration of   1 degrees of freedom as
           vibrations may cause significant error
 Vibrational temperatures:    774.69  2069.29  2069.41  4513.52  4785.55
          (Kelvin)           4785.60

 Zero-point correction=                           0.030082 (Hartree/Particle)
 Thermal correction to Energy=                    0.033124
 Thermal correction to Enthalpy=                  0.034068
 Thermal correction to Gibbs Free Energy=         0.010295
 Sum of electronic and zero-point Energies=            -39.801092
 Sum of electronic and thermal Energies=               -39.798050
 Sum of electronic and thermal Enthalpies=             -39.797105
 Sum of electronic and thermal Free Energies=          -39.820878

                     E (Thermal)             CV                S
                      KCal/Mol        Cal/Mol-Kelvin    Cal/Mol-Kelvin
 Total                   20.786              7.313             50.034
 Electronic               0.000              0.000              1.377
 Translational            0.889              2.981             34.068
 Rotational               0.889              2.981             13.990
 Vibrational             19.008              1.351              0.599
 Vibration     1          0.893              1.165              0.569

 Optimization completed.
    -- Stationary point found.
 Normal termination of Gaussian 09 at Sat Aug 17 17:57:18 2024.
