 Gaussian 09, Revision A.02,
 Gaussian 09:  EM64L-G09RevA.02 11-Jun-2009

 ----------------------------------------------------------------------
 #p b3lyp/aug-cc-pVDZ opt freq symmetry=(follow,pg=C3v) pop=full gfinpu
 t
 ----------------------------------------------------------------------

 --------------------------------------------------------------
 methyl with imposed symmetry and hf/aug-cc-pVDZ basis function
 --------------------------------------------------------------
 Symbolic Z-matrix:
 Charge =  0 Multiplicity = 2

 SCF Done:  E(UB3LYP) =  -39.8443407939     A.U. after    8 cycles
 SCF Done:  E(UB3LYP) =  -39.8443517099     A.U. after    7 cycles
 Optimization completed.
    -- Stationary point found.

 1\1\GINC-MOLMOD\FOpt\UB3LYP\Aug-CC-pVDZ\C1H3(2)\OSPITE\17-Aug-2024\0\\
 #p b3lyp/aug-cc-pVDZ opt freq symmetry=(follow,pg=C3v) pop=full gfinpu
 t\\methyl with imposed symmetry and hf/aug-cc-pVDZ basis function\\0,2
 \C,0.,0.,0.0000013993\H,0.,0.,1.0875224634\H,0.9418224391,0.,-0.543761
 9313\H,-0.9418224391,0.,-0.5437619313\\Version=EM64L-G09RevA.02\State=
 2-A\HF=-39.8443517\S2=0.753518\S2-1=0.\S2A=0.750006\RMSD=1.078e-09\RMS
 F=3.957e-05\Dipole=0.,-0.00001,0.\Quadrupole=0.4596688,-5.8755748,5.41
 5906,0.,0.0000559,0.\PG=C01 [X(C1H3)]\\@

 Normal termination of Gaussian 09 at Sat Aug 17 17:55:17 2024.

 ----------------------------------------------------------------------
 #P Geom=AllCheck Guess=TCheck SCRF=Check GenChk UB3LYP/Aug-CC-pVDZ Fre
 q
 ----------------------------------------------------------------------

 methyl with imposed symmetry and hf/aug-cc-pVDZ basis function
 --------------------------------------------------------------
 Redundant internal coordinates taken from checkpoint file:
 /home/ospite/Desktop/MMfP/Project6/CH3/g09/DFT/Gau-8677.chk
 Charge =  0 Multiplicity = 2

                         Standard orientation:
 ---------------------------------------------------------------------
 Center     Atomic      Atomic             Coordinates (Angstroms)
 Number     Number       Type             X           Y           Z
 ---------------------------------------------------------------------
      1          6           0        0.000000    0.000001    0.000000
      2          1           0       -0.000012    1.087522   -0.000000
      3          1           0        0.941829   -0.543752    0.000000
      4          1           0       -0.941816   -0.543773   -0.000000
 ---------------------------------------------------------------------

 SCF Done:  E(UB3LYP) =  -39.8443517099     A.U. after    1 cycles

 The electronic state is 2-A".
 Alpha  occ. eigenvalues --  -10.20350  -0.68981  -0.42401  -0.42401  -0.23724
 Alpha virt. eigenvalues --   -0.00643   0.02895   0.02896   0.06428   0.09907
 Alpha virt. eigenvalues --    0.09908   0.11102   0.16619   0.16619   0.16886
 Alpha virt. eigenvalues --    0.24836   0.24836   0.34194   0.34196   0.36835

  Beta  occ. eigenvalues --  -10.18947  -0.64995  -0.41421  -0.41420
  Beta virt. eigenvalues --   -0.08060  -0.00405   0.02843   0.02843   0.08451
  Beta virt. eigenvalues --    0.09846   0.09846   0.11629   0.16873   0.16873
  Beta virt. eigenvalues --    0.18645   0.25649   0.25650   0.34232   0.34234

 Mulliken atomic charges:
              1
     1  C    0.749994
     2  H   -0.249993
     3  H   -0.250001
     4  H   -0.250001
 Sum of Mulliken atomic charges =  -0.00000

 Dipole moment (field-independent basis, Debye):
    X=             -0.0000    Y=             -0.0000    Z=             -0.0000  Tot=              0.0000
 Quadrupole moment (field-independent basis, Debye-Ang):
   XX=             -7.3677   YY=             -7.3676   ZZ=             -9.2225
   XY=              0.0000   XZ=             -0.0000   YZ=              0.0000

  Exact polarizability:  16.078   0.003  16.083  -0.000  -0.000  16.098
 Approx polarizability:  19.391  -0.000  19.391   0.000  -0.000  18.116

                     1                      2                      3
                    A"                     A'                     A'
 Frequencies --   558.8174              1380.7780              1380.8065
 Red. masses --     1.2356                 1.1021                 1.1021
 Frc consts  --     0.2273                 1.2380                 1.2380
 IR Inten    --    75.7886                 2.6372                 2.6331

                     4                      5                      6
                    A'                     A'                     A'
 Frequencies --  3104.8875              3294.9623              3294.9836
 Red. masses --     1.0078                 1.1184                 1.1183
 Frc consts  --     5.7244                 7.1537                 7.1536
 IR Inten    --     0.0000                 4.0786                 4.0690

 - Thermochemistry -
 -------------------
 Temperature   298.150 Kelvin.  Pressure   1.00000 Atm.
 Atom     1 has atomic number  6 and mass  12.00000

 Molecular mass:    15.02348 amu.
 Principal axes and moments of inertia in atomic units:
                           1         2         3
     Eigenvalues --     6.38485   6.38485  12.76971
           X            0.00000   1.00000   0.00000
           Y            1.00000  -0.00000   0.00000
           Z           -0.00000   0.00000   1.00000
 This molecule is an oblate symmetric top.
 Rotational symmetry number  1.
 Rotational temperatures (Kelvin)     13.56551    13.56551     6.78276
 Rotational constants (GHZ):         282.65976   282.65974   141.32987
 Zero-point vibrational energy      77848.4 (Joules/Mol)
                                   18.60621 (Kcal/Mol)
 Warning -- explicit consideration of   1 degrees of freedom as
           vibrations may cause significant error
 Vibrational temperatures:    804.01  1986.63  1986.67  4467.23  4740.71
          (Kelvin)           4740.74

 Zero-point correction=                           0.029651 (Hartree/Particle)
 Thermal correction to Energy=                    0.032684
 Thermal correction to Enthalpy=                  0.033628
 Thermal correction to Gibbs Free Energy=         0.009858
 Sum of electronic and zero-point Energies=            -39.814701
 Sum of electronic and thermal Energies=               -39.811668
 Sum of electronic and thermal Enthalpies=             -39.810724
 Sum of electronic and thermal Free Energies=          -39.834494

                     E (Thermal)             CV                S
                      KCal/Mol        Cal/Mol-Kelvin    Cal/Mol-Kelvin
 Total                   20.509              7.308             50.028
 Electronic               0.000              0.000              1.377
 Translational            0.889              2.981             34.068
 Rotational               0.889              2.981             14.018
 Vibrational             18.732              1.347              0.565
 Vibration     1          0.914              1.120              0.526

 Optimization completed.
    -- Stationary point found.

 1\1\GINC-MOLMOD\Freq\UB3LYP\Aug-CC-pVDZ\C1H3(2)\OSPITE\17-Aug-2024\0\\
 #P Geom=AllCheck Guess=TCheck SCRF=Check GenChk UB3LYP/Aug-CC-pVDZ Fre
 q\\methyl with imposed symmetry and hf/aug-cc-pVDZ basis function\\0,2
 \C,0.,0.,0.0000013993\H,0.,0.,1.0875224634\H,0.9418224391,0.,-0.543761
 9313\H,-0.9418224391,0.,-0.5437619313\\Version=EM64L-G09RevA.02\State=
 2-A"\HF=-39.8443517\S2=0.753518\S2-1=0.\S2A=0.750006\RMSD=2.213e-10\RM
 SF=3.957e-05\ZeroPoint=0.0296509\Thermal=0.0326836\Dipole=0.,0.,-0.000
 0101\DipoleDeriv=0.018608,-0.000001,-0.0000663,-0.0000012,-0.4332962,-

 Normal termination of Gaussian 09 at Sat Aug 17 17:56:17 2024.
