 Gaussian 09, Revision A.02,
 Gaussian 09:  EM64L-G09RevA.02 11-Jun-2009

 -------------------------------------------------------------------
 #p b3lyp/cc-pVQZ opt freq symmetry=(follow,pg=C3v) pop=full gfinput
 -------------------------------------------------------------------

 --------------------------------------------------
 methyl with imposed symmetry and cc-pVQZ basis set
 --------------------------------------------------
 Symbolic Z-matrix:
 Charge =  0 Multiplicity = 2

 SCF Done:  E(UB3LYP) =  -39.8616750932     A.U. after   10 cycles
 SCF Done:  E(UB3LYP) =  -39.8619834842     A.U. after    9 cycles
 Optimization completed.
    -- Stationary point found.
 Normal termination of Gaussian 09 at Sun Aug 18 14:19:29 2024.

 -------------------------------------------------------------------
 #P Geom=AllCheck Guess=TCheck SCRF=Check GenChk UB3LYP/CC-pVQZ Freq
 -------------------------------------------------------------------

 methyl with imposed symmetry and cc-pVQZ basis set
 --------------------------------------------------
 Redundant internal coordinates taken from checkpoint file:
 /home/ospite/Desktop/MMfP/Project6/CH3/g09/DFT/B3LYP/Gau-6981.chk
 Charge =  0 Multiplicity = 2

                         Standard orientation:
 ---------------------------------------------------------------------
 Center     Atomic      Atomic             Coordinates (Angstroms)
 Number     Number       Type             X           Y           Z
 ---------------------------------------------------------------------
      1          6           0        0.000000    0.000001   -0.000000
      2          1           0       -0.000000   -1.077096    0.000000
      3          1           0        0.932798    0.538545    0.000000
      4          1           0       -0.932798    0.538546   -0.000000
 ---------------------------------------------------------------------

 SCF Done:  E(UB3LYP) =  -39.8619834842     A.U. after    1 cycles

 The electronic state is 2-A".
 Alpha  occ. eigenvalues --  -10.18340  -0.69048  -0.42593  -0.42593  -0.23690
 Alpha virt. eigenvalues --    0.03433   0.10147   0.10147   0.18525   0.18525
 Alpha virt. eigenvalues --    0.21698   0.26623   0.34961   0.38923   0.38923
 Alpha virt. eigenvalues --    0.41126   0.41127   0.62497   0.63031   0.65777

  Beta  occ. eigenvalues --  -10.16910  -0.65112  -0.41656  -0.41656
  Beta virt. eigenvalues --   -0.07616   0.03980   0.10294   0.10294   0.18632
  Beta virt. eigenvalues --    0.18633   0.26173   0.29374   0.36264   0.39363
  Beta virt. eigenvalues --    0.39364   0.43320   0.43321   0.62256   0.64872

 Mulliken atomic charges:
              1
     1  C   -0.302859
     2  H    0.101021
     3  H    0.100919
     4  H    0.100919
 Sum of Mulliken atomic charges =  -0.00000

 Dipole moment (field-independent basis, Debye):
    X=              0.0000    Y=              0.0000    Z=              0.0000  Tot=              0.0000
 Quadrupole moment (field-independent basis, Debye-Ang):
   XX=             -7.2744   YY=             -7.2744   ZZ=             -9.0667
   XY=             -0.0000   XZ=             -0.0000   YZ=              0.0000

  Exact polarizability:  14.793  -0.000  14.793   0.000  -0.000  12.605
 Approx polarizability:  17.871  -0.000  17.871   0.000   0.000  14.921

 Error termination via Lnk1e in /programs/64bit/g09/g09-gfortran/bin/l701.exe at Sun Aug 18 14:31:21 2024.
