 Gaussian 09, Revision D.01,
 Gaussian 09:  EM64L-G09RevD.01 24-Apr-2013

 --------------------------
 #p B3PW91/cc-pVTZ nmr=giao
 --------------------------

 ---------------------
 tetramethylsilane nmr
 ---------------------
 Symbolic Z-matrix:
 Charge =  0 Multiplicity = 1

                         Standard orientation:
 ---------------------------------------------------------------------
 Center     Atomic      Atomic             Coordinates (Angstroms)
 Number     Number       Type             X           Y           Z
 ---------------------------------------------------------------------
      1         14           0        0.000000    0.000000    0.000000
      2          6           0       -1.089460   -1.089460    1.089460
      3          6           0        1.089460    1.089460    1.089460
      4          6           0        1.089460   -1.089460   -1.089460
      5          6           0       -1.089460    1.089460   -1.089460
      6          1           0        1.733125    1.733125    0.485351
      7          1           0        0.485351    1.733125    1.733125
      8          1           0        1.733125    0.485351    1.733125
      9          1           0       -1.733125   -1.733125    0.485351
     10          1           0       -0.485351   -1.733125    1.733125
     11          1           0       -1.733125   -0.485351    1.733125
     12          1           0       -1.733125    0.485351   -1.733125
     13          1           0       -1.733125    1.733125   -0.485351
     14          1           0       -0.485351    1.733125   -1.733125
     15          1           0        1.733125   -0.485351   -1.733125
     16          1           0        1.733125   -1.733125   -0.485351
     17          1           0        0.485351   -1.733125   -1.733125
 ---------------------------------------------------------------------

 SCF Done:  E(RB3PW91) =  -449.181235397     A.U. after   11 cycles

      1  Si   Isotropic =   352.6312   Anisotropy =     0.0000

      2  C    Isotropic =   187.3114   Anisotropy =     7.2591

      3  C    Isotropic =   187.3114   Anisotropy =     7.2591

      4  C    Isotropic =   187.3114   Anisotropy =     7.2591

      5  C    Isotropic =   187.3114   Anisotropy =     7.2591

      6  H    Isotropic =    31.6314   Anisotropy =     9.5435

      7  H    Isotropic =    31.6314   Anisotropy =     9.5435

      8  H    Isotropic =    31.6314   Anisotropy =     9.5435

      9  H    Isotropic =    31.6314   Anisotropy =     9.5435

     10  H    Isotropic =    31.6314   Anisotropy =     9.5435

     11  H    Isotropic =    31.6314   Anisotropy =     9.5435

     12  H    Isotropic =    31.6314   Anisotropy =     9.5435

     13  H    Isotropic =    31.6314   Anisotropy =     9.5435

     14  H    Isotropic =    31.6314   Anisotropy =     9.5435

     15  H    Isotropic =    31.6314   Anisotropy =     9.5435

     16  H    Isotropic =    31.6314   Anisotropy =     9.5435

     17  H    Isotropic =    31.6314   Anisotropy =     9.5435

 The electronic state is 1-A1.
 Alpha  occ. eigenvalues --  -66.07987 -10.13437 -10.13437 -10.13437 -10.13436
 Alpha  occ. eigenvalues --   -5.24972  -3.60393  -3.60393  -3.60393  -0.72189
 Alpha  occ. eigenvalues --   -0.67858  -0.67858  -0.67858  -0.45786  -0.41350
 Alpha  occ. eigenvalues --   -0.41350  -0.41350  -0.39808  -0.39808  -0.38023
 Alpha  occ. eigenvalues --   -0.38023  -0.38023  -0.29664  -0.29664  -0.29664
 Alpha virt. eigenvalues --    0.03424   0.07864   0.07864   0.07864   0.09535
 Alpha virt. eigenvalues --    0.09535   0.09535   0.12554   0.12554   0.14335
 Alpha virt. eigenvalues --    0.14335   0.14335   0.15618   0.15618   0.15618

 Mulliken charges:
               1
     1  Si   0.409434
     2  C   -0.380588
     3  C   -0.380588
     4  C   -0.380588
     5  C   -0.380588
     6  H    0.092743
     7  H    0.092743
     8  H    0.092743
     9  H    0.092743
    10  H    0.092743
    11  H    0.092743
    12  H    0.092743
    13  H    0.092743
    14  H    0.092743
    15  H    0.092743
    16  H    0.092743
    17  H    0.092743
 Sum of Mulliken charges =  -0.00000

 Dipole moment (field-independent basis, Debye):
    X=              0.0000    Y=              0.0000    Z=             -0.0000  Tot=              0.0000
 Quadrupole moment (field-independent basis, Debye-Ang):
   XX=            -42.0843   YY=            -42.0843   ZZ=            -42.0843
   XY=             -0.0000   XZ=             -0.0000   YZ=              0.0000

 1\1\GINC-R500N004\SP\RB3PW91\CC-pVTZ\C4H12Si1\ECABIATI\12-Sep-2024\0\\
 #p B3PW91/cc-pVTZ nmr=giao\\tetramethylsilane nmr\\0,1\Si\C,1,1.887\C,
 1,1.887,2,109.47122063\C,1,1.887,2,109.47122063,3,120.,0\C,1,1.887,3,1
 09.47122063,2,120.,0\H,3,1.0925,1,111.1653,2,180.,0\H,3,1.0925,1,111.1
 653,6,120.,0\H,3,1.0925,1,111.1653,6,240.,0\H,2,1.0925,1,111.1653,3,18
 0.,0\H,2,1.0925,1,111.1653,9,120.,0\H,2,1.0925,1,111.1653,9,240.,0\H,5
 ,1.0925,1,111.1653,3,180.,0\H,5,1.0925,1,111.1653,12,120.,0\H,5,1.0925
 ,1,111.1653,12,240.,0\H,4,1.0925,1,111.1653,2,180.,0\H,4,1.0925,1,111.

 Normal termination of Gaussian 09 at Thu Sep 12 13:11:27 2024.
