 Gaussian 09, Revision D.01,
 Gaussian 09:  EM64L-G09RevD.01 24-Apr-2013

 -----------------------------
 #p B3LYP/6-31+g(d,p) opt freq
 -----------------------------

 ---------
 h04s- gas
 ---------
 Symbolic Z-matrix:
 Charge = -1 Multiplicity = 1

 SCF Done:  E(RB3LYP) =  -699.694988329     A.U. after   13 cycles
 SCF Done:  E(RB3LYP) =  -699.721973931     A.U. after   12 cycles
 SCF Done:  E(RB3LYP) =  -699.728579189     A.U. after   12 cycles
 SCF Done:  E(RB3LYP) =  -699.729816356     A.U. after   11 cycles
 SCF Done:  E(RB3LYP) =  -699.729900618     A.U. after   10 cycles
 SCF Done:  E(RB3LYP) =  -699.729904323     A.U. after    9 cycles
 Optimization completed.
    -- Stationary point found.
 Normal termination of Gaussian 09 at Wed Sep 18 00:22:13 2024.

 ----------------------------------------------------------------------
 #P Geom=AllCheck Guess=TCheck SCRF=Check GenChk RB3LYP/6-31+G(d,p) Fre
 q
 ----------------------------------------------------------------------

 Structure from the checkpoint file:  "/g100_scratch/userexternal/ecabiati/g16_14421831/Gau-30957.chk"
 ---------
 h04s- gas
 ---------
 Charge = -1 Multiplicity = 1

                         Standard orientation:
 ---------------------------------------------------------------------
 Center     Atomic      Atomic             Coordinates (Angstroms)
 Number     Number       Type             X           Y           Z
 ---------------------------------------------------------------------
      1         16           0       -0.146737    0.015473    0.050565
      2          8           0        1.349524   -0.229787   -0.750949
      3          8           0       -0.809864    1.076424   -0.740371
      4          8           0       -0.805829   -1.308245   -0.011125
      5          8           0        0.309822    0.431403    1.409878
      6          1           0        1.998561   -0.005920   -0.068498
 ---------------------------------------------------------------------

 SCF Done:  E(RB3LYP) =  -699.729904323     A.U. after    1 cycles

 The electronic state is 1-A.
 Alpha  occ. eigenvalues --  -88.95972 -19.01589 -18.96456 -18.96231 -18.96213
 Alpha  occ. eigenvalues --   -7.97700  -5.94341  -5.94107  -5.94081  -0.96134
 Alpha  occ. eigenvalues --   -0.84434  -0.80918  -0.80912  -0.44396  -0.34860
 Alpha  occ. eigenvalues --   -0.30024  -0.28919  -0.26402  -0.18835  -0.16619
 Alpha  occ. eigenvalues --   -0.16576  -0.16040  -0.12575  -0.11039  -0.08931
 Alpha virt. eigenvalues --    0.14153   0.18338   0.19038   0.19186   0.23013
 Alpha virt. eigenvalues --    0.27950   0.28517   0.30645   0.31085   0.32021
 Alpha virt. eigenvalues --    0.34365   0.34648   0.36578   0.38247   0.39262

 Mulliken charges:
               1
     1  S    1.571209
     2  O   -0.733347
     3  O   -0.697494
     4  O   -0.699018
     5  O   -0.789438
     6  H    0.348088
 Sum of Mulliken charges =  -1.00000

 Dipole moment (field-independent basis, Debye):
    X=              2.4395    Y=              0.0887    Z=              0.1969  Tot=              2.4491
 Quadrupole moment (field-independent basis, Debye-Ang):
   XX=            -38.5757   YY=            -45.8656   ZZ=            -45.8292
   XY=              0.0451   XZ=             -0.0855   YZ=              0.0104

  Exact polarizability:  41.024   0.350  39.980   1.119  -0.247  39.229
 Approx polarizability:  54.825   1.114  57.383   3.661  -0.504  55.821

 ******    1 imaginary frequencies (negative Signs) ******

                      1                      2                      3
                      A                      A                      A
 Frequencies --   -127.1452               357.8275               360.6571
 Red. masses --      1.1655                 6.8218                 7.9050
 Frc consts  --      0.0111                 0.5146                 0.6058
 IR Inten    --   87.59                  3.722                  3.917

                      4                      5                      6
                      A                      A                      A
 Frequencies --    512.2540               517.4742               530.5452
 Red. masses --     15.2039                 9.2965                17.6834
 Frc consts  --      2.3506                 1.4667                 2.9327
 IR Inten    --   4.128                  31.91                  37.20

                      7                      8                      9
                      A                      A                      A
 Frequencies --    682.4407               982.3226              1079.5245
 Red. masses --     19.0532                13.5322                 1.6284
 Frc consts  --      5.2281                 7.6936                 1.1181
 IR Inten    --   288.8                  79.99                  185.1

                     10                     11                     12
                      A                      A                      A
 Frequencies --   1212.1710              1227.1238              3821.8835
 Red. masses --     20.4899                 3.4810                 1.0659
 Frc consts  --     17.7385                 3.0884                 9.1729
 IR Inten    --   393.0                  322.7                  46.29

 - Thermochemistry -
 -------------------
 Temperature   298.150 Kelvin.  Pressure   1.00000 Atm.
 Atom     1 has atomic number 16 and mass  31.97207

 Molecular mass:    96.95956 amu.
 Principal axes and moments of inertia in atomic units:
                           1         2         3
     Eigenvalues --   354.98031 378.12656 378.37829
           X            0.99978  -0.00163  -0.02097
           Y            0.00183   0.99995   0.00949
           Z            0.02095  -0.00952   0.99974
 This molecule is an asymmetric top.
 Rotational symmetry number  1.
 Rotational temperatures (Kelvin)      0.24400     0.22906     0.22891
 Rotational constants (GHZ):           5.08406     4.77285     4.76967
    1 imaginary frequencies ignored.
 Zero-point vibrational energy      67494.6 (Joules/Mol)
                                   16.13161 (Kcal/Mol)
 Warning -- explicit consideration of   5 degrees of freedom as
           vibrations may cause significant error
 Vibrational temperatures:    514.83   518.90   737.02   744.53   763.34
          (Kelvin)            981.88  1413.34  1553.19  1744.04  1765.56
                             5498.83

 Zero-point correction=                           0.025707 (Hartree/Particle)
 Thermal correction to Energy=                    0.030089
 Thermal correction to Enthalpy=                  0.031033
 Thermal correction to Gibbs Free Energy=        -0.002089
 Sum of electronic and zero-point Energies=           -699.704197
 Sum of electronic and thermal Energies=              -699.699815
 Sum of electronic and thermal Enthalpies=            -699.698871
 Sum of electronic and thermal Free Energies=         -699.731994

                     E (Thermal)             CV                S
                      KCal/Mol        Cal/Mol-Kelvin    Cal/Mol-Kelvin
 Total                   18.881             14.634             69.712
 Electronic               0.000              0.000              0.000
 Translational            0.889              2.981             39.626
 Rotational               0.889              2.981             25.433
 Vibrational             17.104              8.672              4.653
 Vibration     1          0.733              1.559              1.132
 Vibration     2          0.735              1.553              1.119
 Vibration     3          0.867              1.223              0.628
 Vibration     4          0.872              1.211              0.616
 Vibration     5          0.886              1.182              0.586

 Normal termination of Gaussian 09 at Wed Sep 18 00:22:19 2024.
