 Gaussian 09, Revision D.01,
 Gaussian 09:  EM64L-G09RevD.01 24-Apr-2013

 -----------------------------
 #p B3LYP/6-31+g(d,p) opt freq
 -----------------------------

 ---------
 h04s- gas
 ---------
 Symbolic Z-matrix:
 Charge = -1 Multiplicity = 1

 SCF Done:  E(RB3LYP) =  -699.696514339     A.U. after   13 cycles
 SCF Done:  E(RB3LYP) =  -699.722966372     A.U. after   12 cycles
 SCF Done:  E(RB3LYP) =  -699.729316163     A.U. after   11 cycles
 SCF Done:  E(RB3LYP) =  -699.730060161     A.U. after   11 cycles
 SCF Done:  E(RB3LYP) =  -699.730130425     A.U. after   10 cycles
 SCF Done:  E(RB3LYP) =  -699.730145429     A.U. after    9 cycles
 Optimization completed.
    -- Stationary point found.
 Normal termination of Gaussian 09 at Tue Sep 17 19:23:42 2024.

 ----------------------------------------------------------------------
 #P Geom=AllCheck Guess=TCheck SCRF=Check GenChk RB3LYP/6-31+G(d,p) Fre
 q
 ----------------------------------------------------------------------

 Structure from the checkpoint file:  "/g100_scratch/userexternal/ecabiati/g16_14420020/Gau-43686.chk"
 ---------
 h04s- gas
 ---------
 Charge = -1 Multiplicity = 1

                         Standard orientation:
 ---------------------------------------------------------------------
 Center     Atomic      Atomic             Coordinates (Angstroms)
 Number     Number       Type             X           Y           Z
 ---------------------------------------------------------------------
      1         16           0        0.154653    0.025095   -0.002175
      2          8           0       -1.484244   -0.476160    0.025761
      3          8           0        0.254797    0.840663   -1.241688
      4          8           0        0.309486    0.814009    1.248567
      5          8           0        0.859527   -1.272386   -0.030679
      6          1           0       -1.990976    0.349465    0.019117
 ---------------------------------------------------------------------

 SCF Done:  E(RB3LYP) =  -699.730145429     A.U. after    1 cycles

 The electronic state is 1-A.
 Alpha  occ. eigenvalues --  -88.95896 -19.01765 -18.96301 -18.96183 -18.96167
 Alpha  occ. eigenvalues --   -7.97615  -5.94258  -5.94014  -5.94003  -0.96064
 Alpha  occ. eigenvalues --   -0.84420  -0.81109  -0.80647  -0.44460  -0.34989
 Alpha  occ. eigenvalues --   -0.29989  -0.28939  -0.25843  -0.19011  -0.16662
 Alpha  occ. eigenvalues --   -0.16391  -0.16027  -0.12516  -0.11009  -0.08842
 Alpha virt. eigenvalues --    0.13893   0.18219   0.19151   0.19203   0.23063
 Alpha virt. eigenvalues --    0.27809   0.28784   0.30715   0.31023   0.32612
 Alpha virt. eigenvalues --    0.33961   0.35523   0.38062   0.38322   0.38414

 Mulliken charges:
               1
     1  S    1.553880
     2  O   -0.704028
     3  O   -0.727426
     4  O   -0.724568
     5  O   -0.735063
     6  H    0.337205
 Sum of Mulliken charges =  -1.00000

 Dipole moment (field-independent basis, Debye):
    X=             -2.4094    Y=              0.7669    Z=              0.0186  Tot=              2.5286
 Quadrupole moment (field-independent basis, Debye-Ang):
   XX=            -38.3526   YY=            -45.6368   ZZ=            -46.0711
   XY=             -1.9079   XZ=             -0.0899   YZ=              0.0193

  Exact polarizability:  40.192  -1.087  40.499   0.033   0.018  39.855
 Approx polarizability:  52.808  -2.781  58.900   0.126   0.043  56.853

                      1                      2                      3
                      A                      A                      A
 Frequencies --     52.5032               363.4580               393.1659
 Red. masses --      1.1512                 8.5784                 7.3902
 Frc consts  --      0.0019                 0.6677                 0.6731
 IR Inten    --   74.92                  4.120                  11.80

                      4                      5                      6
                      A                      A                      A
 Frequencies --    506.8569               520.6173               532.9853
 Red. masses --      9.4015                14.1255                17.0466
 Frc consts  --      1.4230                 2.2557                 2.8531
 IR Inten    --   10.92                  22.78                  42.47

                      7                      8                      9
                      A                      A                      A
 Frequencies --    681.3855               988.2182              1112.8346
 Red. masses --     19.1028                16.4125                 1.4169
 Frc consts  --      5.2256                 9.4435                 1.0338
 IR Inten    --   288.2                  96.44                  108.6

                     10                     11                     12
                      A                      A                      A
 Frequencies --   1183.8876              1244.8588              3805.8922
 Red. masses --     20.1644                 4.7621                 1.0657
 Frc consts  --     16.6516                 4.3480                 9.0950
 IR Inten    --   414.4                  351.2                  28.67

 - Thermochemistry -
 -------------------
 Temperature   298.150 Kelvin.  Pressure   1.00000 Atm.
 Atom     1 has atomic number 16 and mass  31.97207

 Molecular mass:    96.95956 amu.
 Principal axes and moments of inertia in atomic units:
                           1         2         3
     Eigenvalues --   360.75748 371.85506 378.21021
           X            0.97306  -0.23035  -0.00906
           Y            0.23042   0.97307   0.00669
           Z            0.00728  -0.00860   0.99994
 This molecule is an asymmetric top.
 Rotational symmetry number  1.
 Rotational temperatures (Kelvin)      0.24009     0.23292     0.22901
 Rotational constants (GHZ):           5.00264     4.85335     4.77179
 Zero-point vibrational energy      68107.4 (Joules/Mol)
                                   16.27805 (Kcal/Mol)
 Warning -- explicit consideration of   6 degrees of freedom as
           vibrations may cause significant error
 Vibrational temperatures:     75.54   522.93   565.68   729.25   749.05
          (Kelvin)            766.85   980.36  1421.82  1601.12  1703.35
                             1791.07  5475.82

 Zero-point correction=                           0.025941 (Hartree/Particle)
 Thermal correction to Energy=                    0.031109
 Thermal correction to Enthalpy=                  0.032054
 Thermal correction to Gibbs Free Energy=        -0.003234
 Sum of electronic and zero-point Energies=           -699.704205
 Sum of electronic and thermal Energies=              -699.699036
 Sum of electronic and thermal Enthalpies=            -699.698092
 Sum of electronic and thermal Free Energies=         -699.733379

                     E (Thermal)             CV                S
                      KCal/Mol        Cal/Mol-Kelvin    Cal/Mol-Kelvin
 Total                   19.521             16.504             74.269
 Electronic               0.000              0.000              0.000
 Translational            0.889              2.981             39.626
 Rotational               0.889              2.981             25.432
 Vibrational             17.744             10.543              9.211
 Vibration     1          0.596              1.977              4.721
 Vibration     2          0.737              1.548              1.107
 Vibration     3          0.760              1.485              0.988
 Vibration     4          0.862              1.235              0.641
 Vibration     5          0.876              1.204              0.609
 Vibration     6          0.888              1.177              0.581

 Normal termination of Gaussian 09 at Tue Sep 17 19:23:48 2024.
