 Gaussian 09, Revision D.01,
 Gaussian 09:  EM64L-G09RevD.01 24-Apr-2013

 -------------------------------------------------
 #p B3LYP/6-31+g(d,p) opt scrf=(smd,solvent=water)
 -------------------------------------------------

 ---------
 h04s- sol
 ---------
 Symbolic Z-matrix:
 Charge = -1 Multiplicity = 1

 SCF Done:  E(RB3LYP) =  -699.810871486     A.U. after   12 cycles
 SCF Done:  E(RB3LYP) =  -699.833490320     A.U. after   12 cycles
 SCF Done:  E(RB3LYP) =  -699.837433190     A.U. after   12 cycles
 SCF Done:  E(RB3LYP) =  -699.838209466     A.U. after   10 cycles
 SCF Done:  E(RB3LYP) =  -699.838231635     A.U. after    9 cycles
 SCF Done:  E(RB3LYP) =  -699.838238677     A.U. after    9 cycles
 SCF Done:  E(RB3LYP) =  -699.838242614     A.U. after    8 cycles
 Optimization completed.
    -- Stationary point found.

                         Standard orientation:
 ---------------------------------------------------------------------
 Center     Atomic      Atomic             Coordinates (Angstroms)
 Number     Number       Type             X           Y           Z
 ---------------------------------------------------------------------
      1         16           0        0.132023    0.011524   -0.000048
      2          8           0       -1.499621   -0.308667    0.000964
      3          8           0        0.392382    0.782016   -1.246086
      4          8           0        0.391579    0.794690    1.238583
      5          8           0        0.700663   -1.357681    0.006912
      6          1           0       -1.992395    0.532751   -0.002224
 ---------------------------------------------------------------------

 The electronic state is 1-A.
 Alpha  occ. eigenvalues --  -89.14901 -19.19559 -19.14818 -19.14724 -19.14724
 Alpha  occ. eigenvalues --   -8.16533  -6.13159  -6.12956  -6.12944  -1.14993
 Alpha  occ. eigenvalues --   -1.02593  -0.99679  -0.99325  -0.63576  -0.53749
 Alpha  occ. eigenvalues --   -0.48664  -0.48063  -0.43671  -0.37403  -0.35559
 Alpha  occ. eigenvalues --   -0.35372  -0.34896  -0.31045  -0.29528  -0.27751
 Alpha virt. eigenvalues --   -0.00231   0.04267   0.05071   0.05076   0.07079
 Alpha virt. eigenvalues --    0.11254   0.12461   0.13392   0.15548   0.17129
 Alpha virt. eigenvalues --    0.17840   0.19215   0.20350   0.20356   0.21872

 Mulliken charges:
               1
     1  S    1.687702
     2  O   -0.735318
     3  O   -0.785411
     4  O   -0.785655
     5  O   -0.811505
     6  H    0.430186
 Sum of Mulliken charges =  -1.00000

 Dipole moment (field-independent basis, Debye):
    X=             -3.9608    Y=              1.4090    Z=             -0.0073  Tot=              4.2040
 Quadrupole moment (field-independent basis, Debye-Ang):
   XX=            -36.3591   YY=            -45.6058   ZZ=            -46.3798
   XY=             -3.0706   XZ=              0.0123   YZ=             -0.0054

 Normal termination of Gaussian 09 at Tue Sep 17 13:50:38 2024.
