 Gaussian 09, Revision D.01,
 Gaussian 09:  EM64L-G09RevD.01 24-Apr-2013

 ------------------------------------------------------
 #p B3LYP/6-31+g(d,p) opt freq scrf=(smd,solvent=water)
 ------------------------------------------------------

 ---------
 h04s- sol
 ---------
 Symbolic Z-matrix:
 Charge = -1 Multiplicity = 1

 SCF Done:  E(RB3LYP) =  -699.809475746     A.U. after   12 cycles
 SCF Done:  E(RB3LYP) =  -699.832199138     A.U. after   12 cycles
 SCF Done:  E(RB3LYP) =  -699.836129811     A.U. after   12 cycles
 SCF Done:  E(RB3LYP) =  -699.836938229     A.U. after   10 cycles
 SCF Done:  E(RB3LYP) =  -699.836989200     A.U. after    9 cycles
 SCF Done:  E(RB3LYP) =  -699.836981960     A.U. after    8 cycles
 SCF Done:  E(RB3LYP) =  -699.836983850     A.U. after    8 cycles
 Optimization completed.
    -- Stationary point found.
 Normal termination of Gaussian 09 at Wed Sep 18 00:23:29 2024.

 ----------------------------------------------------------------------
 #P Geom=AllCheck Guess=TCheck SCRF=Check GenChk RB3LYP/6-31+G(d,p) Fre
 q
 ----------------------------------------------------------------------

 Structure from the checkpoint file:  "/g100_scratch/userexternal/ecabiati/g16_14421873/Gau-43974.chk"
 ---------
 h04s- sol
 ---------
 Charge = -1 Multiplicity = 1

                         Standard orientation:
 ---------------------------------------------------------------------
 Center     Atomic      Atomic             Coordinates (Angstroms)
 Number     Number       Type             X           Y           Z
 ---------------------------------------------------------------------
      1         16           0       -0.125855   -0.042943    0.003066
      2          8           0        1.375037    0.681913   -0.044172
      3          8           0       -0.768953    0.531867    1.212148
      4          8           0       -0.774435    0.374614   -1.266275
      5          8           0        0.163398   -1.500464    0.093285
      6          1           0        2.053306   -0.016356   -0.008941
 ---------------------------------------------------------------------

 SCF Done:  E(RB3LYP) =  -699.836983850     A.U. after    1 cycles

 The electronic state is 1-A.
 Alpha  occ. eigenvalues --  -89.14924 -19.19392 -19.14935 -19.14729 -19.14717
 Alpha  occ. eigenvalues --   -8.16565  -6.13191  -6.12992  -6.12970  -1.14975
 Alpha  occ. eigenvalues --   -1.02524  -0.99639  -0.99421  -0.63502  -0.53640
 Alpha  occ. eigenvalues --   -0.48664  -0.48029  -0.43937  -0.37368  -0.35515
 Alpha  occ. eigenvalues --   -0.35406  -0.34881  -0.31063  -0.29461  -0.27787
 Alpha virt. eigenvalues --   -0.00208   0.04354   0.05059   0.05067   0.06968
 Alpha virt. eigenvalues --    0.11245   0.12325   0.13386   0.15243   0.16813
 Alpha virt. eigenvalues --    0.17908   0.18059   0.19944   0.20081   0.23026

 Mulliken charges:
               1
     1  S    1.713393
     2  O   -0.750889
     3  O   -0.786795
     4  O   -0.786396
     5  O   -0.819956
     6  H    0.430643
 Sum of Mulliken charges =  -1.00000

 Dipole moment (field-independent basis, Debye):
    X=              4.1360    Y=             -0.4149    Z=              0.0054  Tot=              4.1567
 Quadrupole moment (field-independent basis, Debye-Ang):
   XX=            -36.0058   YY=            -46.1463   ZZ=            -46.3426
   XY=             -0.1322   XZ=             -0.0515   YZ=             -0.0190

  Exact polarizability:  48.734  -2.226  49.868   0.144   0.062  50.424
 Approx polarizability:  50.037  -3.196  53.701   0.213   0.057  53.882

 ******    1 imaginary frequencies (negative Signs) ******

                      1                      2                      3
                      A                      A                      A
 Frequencies --   -187.6509               367.1101               374.8979
 Red. masses --      1.2187                 8.4910                 5.6583
 Frc consts  --      0.0253                 0.6742                 0.4686
 IR Inten    --   191.2                  7.500                  16.35

                      4                      5                      6
                      A                      A                      A
 Frequencies --    510.8417               519.8489               523.9732
 Red. masses --     10.7011                15.4048                14.5151
 Frc consts  --      1.6453                 2.4528                 2.3480
 IR Inten    --   86.84                  73.11                  54.47

                      7                      8                      9
                      A                      A                      A
 Frequencies --    693.7325               982.3134              1091.2688
 Red. masses --     17.7608                16.8211                 1.9827
 Frc consts  --      5.0361                 9.5632                 1.3912
 IR Inten    --   454.3                  171.0                  295.2

                     10                     11                     12
                      A                      A                      A
 Frequencies --   1143.1025              1184.9265              3746.2810
 Red. masses --     20.4178                 2.3719                 1.0667
 Frc consts  --     15.7191                 1.9622                 8.8206
 IR Inten    --   727.3                  558.3                  230.4

 - Thermochemistry -
 -------------------
 Temperature   298.150 Kelvin.  Pressure   1.00000 Atm.
 Atom     1 has atomic number 16 and mass  31.97207

 Molecular mass:    96.95956 amu.
 Principal axes and moments of inertia in atomic units:
                           1         2         3
     Eigenvalues --   355.66392 370.50500 373.92486
           X            0.99996  -0.00807  -0.00360
           Y            0.00808   0.99997   0.00028
           Z            0.00360  -0.00031   0.99999
 This molecule is an asymmetric top.
 Rotational symmetry number  1.
 Rotational temperatures (Kelvin)      0.24353     0.23377     0.23163
 Rotational constants (GHZ):           5.07429     4.87103     4.82648
    1 imaginary frequencies ignored.
 Zero-point vibrational energy      66621.8 (Joules/Mol)
                                   15.92299 (Kcal/Mol)
 Warning -- explicit consideration of   5 degrees of freedom as
           vibrations may cause significant error
 Vibrational temperatures:    528.19   539.39   734.99   747.95   753.88
          (Kelvin)            998.13  1413.33  1570.09  1644.67  1704.84
                             5390.06

 Zero-point correction=                           0.025375 (Hartree/Particle)
 Thermal correction to Energy=                    0.029737
 Thermal correction to Enthalpy=                  0.030681
 Thermal correction to Gibbs Free Energy=        -0.002387
 Sum of electronic and zero-point Energies=           -699.811609
 Sum of electronic and thermal Energies=              -699.807247
 Sum of electronic and thermal Enthalpies=            -699.806303
 Sum of electronic and thermal Free Energies=         -699.839371

                     E (Thermal)             CV                S
                      KCal/Mol        Cal/Mol-Kelvin    Cal/Mol-Kelvin
 Total                   18.660             14.640             69.598
 Electronic               0.000              0.000              0.000
 Translational            0.889              2.981             39.626
 Rotational               0.889              2.981             25.403
 Vibrational             16.883              8.678              4.569
 Vibration     1          0.740              1.540              1.092
 Vibration     2          0.746              1.524              1.060
 Vibration     3          0.866              1.226              0.632
 Vibration     4          0.875              1.206              0.610
 Vibration     5          0.879              1.197              0.601

 Normal termination of Gaussian 09 at Wed Sep 18 00:23:37 2024.
