 Gaussian 09, Revision D.01,
 Gaussian 09:  EM64L-G09RevD.01 24-Apr-2013

 ------------------------------------------------------
 #p B3LYP/6-31+g(d,p) opt freq scrf=(smd,solvent=water)
 ------------------------------------------------------

 ---------
 h04s- sol
 ---------
 Symbolic Z-matrix:
 Charge = -1 Multiplicity = 1

 SCF Done:  E(RB3LYP) =  -699.810871486     A.U. after   12 cycles
 SCF Done:  E(RB3LYP) =  -699.833490320     A.U. after   12 cycles
 SCF Done:  E(RB3LYP) =  -699.837433190     A.U. after   12 cycles
 SCF Done:  E(RB3LYP) =  -699.838209466     A.U. after   10 cycles
 SCF Done:  E(RB3LYP) =  -699.838231635     A.U. after    9 cycles
 SCF Done:  E(RB3LYP) =  -699.838238677     A.U. after    9 cycles
 SCF Done:  E(RB3LYP) =  -699.838242614     A.U. after    8 cycles
 Optimization completed.
    -- Stationary point found.
 Normal termination of Gaussian 09 at Tue Sep 17 19:24:41 2024.

 ----------------------------------------------------------------------
 #P Geom=AllCheck Guess=TCheck SCRF=Check GenChk RB3LYP/6-31+G(d,p) Fre
 q
 ----------------------------------------------------------------------

 Structure from the checkpoint file:  "/g100_scratch/userexternal/ecabiati/g16_14420031/Gau-56427.chk"
 ---------
 h04s- sol
 ---------
 Charge = -1 Multiplicity = 1

                         Standard orientation:
 ---------------------------------------------------------------------
 Center     Atomic      Atomic             Coordinates (Angstroms)
 Number     Number       Type             X           Y           Z
 ---------------------------------------------------------------------
      1         16           0        0.132023    0.011524   -0.000048
      2          8           0       -1.499621   -0.308667    0.000964
      3          8           0        0.392382    0.782016   -1.246086
      4          8           0        0.391579    0.794690    1.238583
      5          8           0        0.700663   -1.357681    0.006912
      6          1           0       -1.992395    0.532751   -0.002224
 ---------------------------------------------------------------------

 SCF Done:  E(RB3LYP) =  -699.838242614     A.U. after    1 cycles

 The electronic state is 1-A.
 Alpha  occ. eigenvalues --  -89.14901 -19.19559 -19.14818 -19.14724 -19.14724
 Alpha  occ. eigenvalues --   -8.16533  -6.13159  -6.12956  -6.12944  -1.14993
 Alpha  occ. eigenvalues --   -1.02593  -0.99679  -0.99325  -0.63576  -0.53749
 Alpha  occ. eigenvalues --   -0.48664  -0.48063  -0.43671  -0.37403  -0.35559
 Alpha  occ. eigenvalues --   -0.35372  -0.34896  -0.31045  -0.29528  -0.27751
 Alpha virt. eigenvalues --   -0.00231   0.04267   0.05071   0.05076   0.07079
 Alpha virt. eigenvalues --    0.11254   0.12461   0.13392   0.15548   0.17129
 Alpha virt. eigenvalues --    0.17840   0.19215   0.20350   0.20356   0.21872

 Mulliken charges:
               1
     1  S    1.687703
     2  O   -0.735318
     3  O   -0.785411
     4  O   -0.785655
     5  O   -0.811505
     6  H    0.430186
 Sum of Mulliken charges =  -1.00000

 Dipole moment (field-independent basis, Debye):
    X=             -3.9608    Y=              1.4090    Z=             -0.0073  Tot=              4.2040
 Quadrupole moment (field-independent basis, Debye-Ang):
   XX=            -36.3591   YY=            -45.6058   ZZ=            -46.3798
   XY=             -3.0706   XZ=              0.0123   YZ=             -0.0054

  Exact polarizability:  47.561  -0.982  51.282   0.005   0.003  50.440
 Approx polarizability:  48.549  -1.163  55.472   0.005   0.001  53.860

                      1                      2                      3
                      A                      A                      A
 Frequencies --    170.5196               376.2310               386.5824
 Red. masses --      1.1372                 8.7484                 7.9914
 Frc consts  --      0.0195                 0.7296                 0.7037
 IR Inten    --   192.3                  7.484                  26.39

                      4                      5                      6
                      A                      A                      A
 Frequencies --    508.3263               518.9562               527.5622
 Red. masses --      9.5115                17.8544                15.9907
 Frc consts  --      1.4481                 2.8331                 2.6222
 IR Inten    --   89.64                  92.46                  48.60

                      7                      8                      9
                      A                      A                      A
 Frequencies --    701.7594               985.9220              1119.8374
 Red. masses --     17.5052                16.7506                 2.3720
 Frc consts  --      5.0792                 9.5933                 1.7526
 IR Inten    --   442.7                  179.6                  316.1

                     10                     11                     12
                      A                      A                      A
 Frequencies --   1135.6334              1201.3351              3732.6083
 Red. masses --     20.4321                 1.9949                 1.0663
 Frc consts  --     15.5253                 1.6963                 8.7526
 IR Inten    --   730.5                  517.1                  195.2

 - Thermochemistry -
 -------------------
 Temperature   298.150 Kelvin.  Pressure   1.00000 Atm.
 Atom     1 has atomic number 16 and mass  31.97207

 Molecular mass:    96.95956 amu.
 Principal axes and moments of inertia in atomic units:
                           1         2         3
     Eigenvalues --   357.47898 368.09634 372.93865
           X            0.92166  -0.38799   0.00158
           Y            0.38799   0.92166  -0.00159
           Z           -0.00084   0.00208   1.00000
 This molecule is an asymmetric top.
 Rotational symmetry number  1.
 Rotational temperatures (Kelvin)      0.24229     0.23530     0.23225
 Rotational constants (GHZ):           5.04852     4.90290     4.83924
 Zero-point vibrational energy      67979.4 (Joules/Mol)
                                   16.24747 (Kcal/Mol)
 Warning -- explicit consideration of   6 degrees of freedom as
           vibrations may cause significant error
 Vibrational temperatures:    245.34   541.31   556.21   731.37   746.66
          (Kelvin)            759.04  1009.67  1418.52  1611.19  1633.92
                             1728.45  5370.38

 Zero-point correction=                           0.025892 (Hartree/Particle)
 Thermal correction to Energy=                    0.030834
 Thermal correction to Enthalpy=                  0.031778
 Thermal correction to Gibbs Free Energy=        -0.002393
 Sum of electronic and zero-point Energies=           -699.812351
 Sum of electronic and thermal Energies=              -699.807409
 Sum of electronic and thermal Enthalpies=            -699.806464
 Sum of electronic and thermal Free Energies=         -699.840636

                     E (Thermal)             CV                S
                      KCal/Mol        Cal/Mol-Kelvin    Cal/Mol-Kelvin
 Total                   19.349             16.426             71.920
 Electronic               0.000              0.000              0.000
 Translational            0.889              2.981             39.626
 Rotational               0.889              2.981             25.398
 Vibrational             17.571             10.464              6.896
 Vibration     1          0.626              1.879              2.430
 Vibration     2          0.747              1.521              1.054
 Vibration     3          0.755              1.499              1.013
 Vibration     4          0.863              1.232              0.638
 Vibration     5          0.874              1.208              0.612
 Vibration     6          0.883              1.189              0.593

 Optimization completed.
    -- Stationary point found.
 Normal termination of Gaussian 09 at Tue Sep 17 19:24:48 2024.
