 Gaussian 09, Revision A.02,
 Gaussian 09:  EM64L-G09RevA.02 11-Jun-2009

 ------------------------
 #p B3LYP/6-31+g(d,p) opt
 ------------------------

 --------
 nh2- gas
 --------
 Symbolic Z-matrix:
 Charge = -1 Multiplicity = 1

 SCF Done:  E(RB3LYP) =  -55.9083037571     A.U. after   12 cycles
 SCF Done:  E(RB3LYP) =  -55.9092084577     A.U. after   10 cycles
 SCF Done:  E(RB3LYP) =  -55.9092507765     A.U. after    7 cycles
 SCF Done:  E(RB3LYP) =  -55.9092515171     A.U. after    7 cycles
 Optimization completed.
    -- Stationary point found.

                         Standard orientation:
 ---------------------------------------------------------------------
 Center     Atomic      Atomic             Coordinates (Angstroms)
 Number     Number       Type             X           Y           Z
 ---------------------------------------------------------------------
      1          7           0       -0.000000    0.000000    0.143083
      2          1           0       -0.000000    0.807249   -0.500790
      3          1           0       -0.000000   -0.807249   -0.500790
 ---------------------------------------------------------------------

 The electronic state is 1-A1.
 Alpha  occ. eigenvalues --  -14.01241  -0.49910  -0.14889  -0.00092   0.06900
 Alpha virt. eigenvalues --    0.23809   0.29113   0.31836   0.32532   0.44679
 Alpha virt. eigenvalues --    0.47337   1.12828   1.16114   1.17000   1.17682
 Alpha virt. eigenvalues --    1.28982   1.34995   1.78964   1.80156   1.90515

 Mulliken atomic charges:
              1
     1  N   -1.349595
     2  H    0.174798
     3  H    0.174798
 Sum of Mulliken atomic charges =  -1.00000

 Dipole moment (field-independent basis, Debye):
    X=             -0.0000    Y=             -0.0000    Z=             -2.3685  Tot=              2.3685
 Quadrupole moment (field-independent basis, Debye-Ang):
   XX=            -14.8494   YY=             -9.7061   ZZ=            -12.4905
   XY=              0.0000   XZ=              0.0000   YZ=              0.0000

 Normal termination of Gaussian 09 at Mon Sep 16 17:41:12 2024.
