 Gaussian 09, Revision A.02,
 Gaussian 09:  EM64L-G09RevA.02 11-Jun-2009

 -------------------------------------------------
 #p B3LYP/6-31+g(d,p) opt scrf=(smd,solvent=water)
 -------------------------------------------------

 -------------
 nh2- solution
 -------------
 Symbolic Z-matrix:
 Charge = -1 Multiplicity = 1

 SCF Done:  E(RB3LYP) =  -56.0348751138     A.U. after   10 cycles
 SCF Done:  E(RB3LYP) =  -56.0357931396     A.U. after    8 cycles
 SCF Done:  E(RB3LYP) =  -56.0358226261     A.U. after    8 cycles
 SCF Done:  E(RB3LYP) =  -56.0358232882     A.U. after    7 cycles
 Optimization completed.
    -- Stationary point found.

                         Standard orientation:
 ---------------------------------------------------------------------
 Center     Atomic      Atomic             Coordinates (Angstroms)
 Number     Number       Type             X           Y           Z
 ---------------------------------------------------------------------
      1          7           0       -0.000000    0.000000    0.141875
      2          1           0        0.000000    0.803227   -0.496561
      3          1           0       -0.000000   -0.803227   -0.496561
 ---------------------------------------------------------------------

 The electronic state is 1-A1.
 Alpha  occ. eigenvalues --  -14.23659  -0.72677  -0.37428  -0.23657  -0.16658
 Alpha virt. eigenvalues --    0.04101   0.10250   0.11360   0.12300   0.23912
 Alpha virt. eigenvalues --    0.27370   0.89965   0.93245   0.93816   0.96759
 Alpha virt. eigenvalues --    1.08227   1.11746   1.56106   1.57351   1.67401

 Mulliken atomic charges:
              1
     1  N   -1.467479
     2  H    0.233740
     3  H    0.233740
 Sum of Mulliken atomic charges =  -1.00000

 Dipole moment (field-independent basis, Debye):
    X=             -0.0000    Y=             -0.0000    Z=             -3.0321  Tot=              3.0321
 Quadrupole moment (field-independent basis, Debye-Ang):
   XX=            -14.1448   YY=             -9.0562   ZZ=            -11.9034
   XY=              0.0000   XZ=              0.0000   YZ=              0.0000

 Normal termination of Gaussian 09 at Mon Sep 16 17:41:40 2024.
