 Gaussian 09, Revision A.02,
 Gaussian 09:  EM64L-G09RevA.02 11-Jun-2009

 ---------------------------------------
 #p mp2/aug-cc-pVDZ opt pop=full gfinput
 ---------------------------------------

 ---------------------------------------------------
 hydrogen (atom) with and aug-cc-pVDZ basis function
 ---------------------------------------------------
 Symbolic Z-matrix:
 Charge =  0 Multiplicity = 2

 SCF Done:  E(UHF) = -0.499334315440     A.U. after    5 cycles
 E2 =     0.0000000000D+00 EUMP2 =    -0.49933431543958D+00

 The electronic state is 2-A1G.
 Alpha  occ. eigenvalues --   -0.49933
 Alpha virt. eigenvalues --    0.07295   0.28136   0.28136   0.28136   0.70627
 Alpha virt. eigenvalues --    1.74430   1.74430   1.74430
  Beta virt. eigenvalues --    0.01793   0.15436   0.32601   0.32601   0.32601

 Mulliken atomic charges:
              1
     1  H    0.000000
 Sum of Mulliken atomic charges =   0.00000

 Dipole moment (field-independent basis, Debye):
    X=              0.0000    Y=              0.0000    Z=              0.0000  Tot=              0.0000
 Quadrupole moment (field-independent basis, Debye-Ang):
   XX=             -1.3558   YY=             -1.3558   ZZ=             -1.3558
   XY=              0.0000   XZ=              0.0000   YZ=              0.0000

 Optimization completed.
    -- Stationary point found.

                         Standard orientation:
 ---------------------------------------------------------------------
 Center     Atomic      Atomic             Coordinates (Angstroms)
 Number     Number       Type             X           Y           Z
 ---------------------------------------------------------------------
      1          1           0        0.000000    0.000000    0.000000
 ---------------------------------------------------------------------

 Normal termination of Gaussian 09 at Sat Aug 17 19:46:37 2024.
