 Gaussian 09, Revision A.02,
 Gaussian 09:  EM64L-G09RevA.02 11-Jun-2009

 -----------------------------------
 #p mp2/cc-pVDZ opt pop=full gfinput
 -----------------------------------

 -------------------------------------
 hydogen (atom) with cc-pVDZ basis set
 -------------------------------------
 Symbolic Z-matrix:
 Charge =  0 Multiplicity = 2

 SCF Done:  E(UHF) = -0.499278403420     A.U. after    5 cycles
 E2 =     0.0000000000D+00 EUMP2 =    -0.49927840341958D+00

 The electronic state is 2-A1G.
 Alpha  occ. eigenvalues --   -0.49928
 Alpha virt. eigenvalues --    0.57244   1.44303   1.44303   1.44303
  Beta virt. eigenvalues --    0.07335   0.75329   1.57364   1.57364   1.57364

 Mulliken atomic charges:
              1
     1  H    0.000000
 Sum of Mulliken atomic charges =   0.00000

 Dipole moment (field-independent basis, Debye):
    X=              0.0000    Y=              0.0000    Z=              0.0000  Tot=              0.0000
 Quadrupole moment (field-independent basis, Debye-Ang):
   XX=             -1.3327   YY=             -1.3327   ZZ=             -1.3327
   XY=              0.0000   XZ=              0.0000   YZ=              0.0000

 Optimization completed.
    -- Stationary point found.

                         Standard orientation:
 ---------------------------------------------------------------------
 Center     Atomic      Atomic             Coordinates (Angstroms)
 Number     Number       Type             X           Y           Z
 ---------------------------------------------------------------------
      1          1           0        0.000000    0.000000    0.000000
 ---------------------------------------------------------------------

 Normal termination of Gaussian 09 at Sat Aug 17 23:07:08 2024.
