 Gaussian 09, Revision A.02,
 Gaussian 09:  EM64L-G09RevA.02 11-Jun-2009

 ----------------------------------------
 #p mp2/cc-pVQZ opt freq pop=full gfinput
 ----------------------------------------

 -------------------------------------
 hydogen (atom) with cc-pVQZ basis set
 -------------------------------------
 Symbolic Z-matrix:
 Charge =  0 Multiplicity = 2

 SCF Done:  E(UHF) = -0.499945568583     A.U. after    6 cycles
 E2 =     0.0000000000D+00 EUMP2 =    -0.49994556858299D+00

 The electronic state is 2-A1G.
 Alpha  occ. eigenvalues --   -0.49995
 Alpha virt. eigenvalues --    0.26739   0.53193   0.53193   0.53193   1.49151
 Alpha virt. eigenvalues --    2.06816   2.06816   2.06816   2.06816   2.06816
 Alpha virt. eigenvalues --    2.35020   2.35020   2.35020   6.05504   6.05504

 Mulliken atomic charges:
              1
     1  H   -0.000000
 Sum of Mulliken atomic charges =  -0.00000

 Dipole moment (field-independent basis, Debye):
    X=              0.0000    Y=              0.0000    Z=              0.0000  Tot=              0.0000
 Quadrupole moment (field-independent basis, Debye-Ang):
   XX=             -1.3435   YY=             -1.3435   ZZ=             -1.3435
   XY=              0.0000   XZ=              0.0000   YZ=              0.0000

 Optimization completed.
    -- Stationary point found.
 Normal termination of Gaussian 09 at Sun Aug 18 15:10:32 2024.

 ---------------------------------------------------------------------
 #P Geom=AllCheck Guess=TCheck SCRF=Check GenChk UMP2(FC)/CC-pVQZ Freq
 ---------------------------------------------------------------------

 -------------------------------------
 No Z-matrix found on checkpoint file.
 Cartesian coordinates read from the checkpoint file:
 /home/ospite/Desktop/MMfP/Project6/H/g09/MP2/Gau-7995.chk
 Charge =  0 Multiplicity = 2

                         Standard orientation:
 ---------------------------------------------------------------------
 Center     Atomic      Atomic             Coordinates (Angstroms)
 Number     Number       Type             X           Y           Z
 ---------------------------------------------------------------------
      1          1           0        0.000000    0.000000    0.000000
 ---------------------------------------------------------------------

 SCF Done:  E(UHF) = -0.499945568583     A.U. after    1 cycles
 E2 =     0.0000000000D+00 EUMP2 =    -0.49994556858299D+00
 E2 =     0.0000000000D+00 EUMP2 =    -0.49994556858299D+00
 Error termination in NtrErr:
