 Gaussian 09, Revision A.02,
 Gaussian 09:  EM64L-G09RevA.02 11-Jun-2009

 ---------------------------------------------------------------------
 #p mp2/aug-cc-pVDZ opt freq symmetry=(follow,pg=C3v) pop=full gfinput
 ---------------------------------------------------------------------

 --------------------------------------------------------------
 methyl with imposed symmetry and hf/aug-cc-pVDZ basis function
 --------------------------------------------------------------
 Symbolic Z-matrix:
 Charge =  0 Multiplicity = 2

 SCF Done:  E(UHF) =  -39.5655739819     A.U. after   11 cycles
 E2 =    -0.1326817430D+00 EUMP2 =    -0.39698255724959D+02
 SCF Done:  E(UHF) =  -39.5656688876     A.U. after    8 cycles
 E2 =    -0.1325966856D+00 EUMP2 =    -0.39698265573193D+02
 Optimization completed.
    -- Stationary point found.
 Normal termination of Gaussian 09 at Sat Aug 17 18:01:29 2024.

 ----------------------------------------------------------------------
 #P Geom=AllCheck Guess=TCheck SCRF=Check GenChk UMP2(FC)/Aug-CC-pVDZ F
 req
 ----------------------------------------------------------------------

 methyl with imposed symmetry and hf/aug-cc-pVDZ basis function
 --------------------------------------------------------------
 Redundant internal coordinates taken from checkpoint file:
 /home/ospite/Desktop/MMfP/Project6/CH3/g09/MP2/Gau-8928.chk
 Charge =  0 Multiplicity = 2

                         Standard orientation:
 ---------------------------------------------------------------------
 Center     Atomic      Atomic             Coordinates (Angstroms)
 Number     Number       Type             X           Y           Z
 ---------------------------------------------------------------------
      1          6           0        0.000000    0.000000    0.000000
      2          1           0        0.000000    1.087593   -0.000000
      3          1           0        0.941883   -0.543796   -0.000000
      4          1           0       -0.941883   -0.543796    0.000000
 ---------------------------------------------------------------------

 SCF Done:  E(UHF) =  -39.5656688876     A.U. after    1 cycles
 E2 =    -0.1325966855D+00 EUMP2 =    -0.39698265573052D+02
 E2 =    -0.1325966855D+00 EUMP2 =    -0.39698265573052D+02

 The electronic state is 2-A2".
 Alpha  occ. eigenvalues --  -11.24541  -0.94591  -0.57796  -0.57796  -0.38337
 Alpha virt. eigenvalues --    0.03741   0.06000   0.06000   0.11632   0.15094
 Alpha virt. eigenvalues --    0.15094   0.17372   0.28444   0.28444   0.28654
 Alpha virt. eigenvalues --    0.36169   0.36169   0.44555   0.44555   0.48436

  Beta  occ. eigenvalues --  -11.22143  -0.85470  -0.56313  -0.56313
  Beta virt. eigenvalues --    0.03922   0.06043   0.06043   0.06777   0.15159
  Beta virt. eigenvalues --    0.15159   0.18115   0.19914   0.28862   0.28862
  Beta virt. eigenvalues --    0.31188   0.37856   0.37856   0.44780   0.44780

 Mulliken atomic charges:
              1
     1  C    0.250562
     2  H   -0.083521
     3  H   -0.083521
     4  H   -0.083521
 Sum of Mulliken atomic charges =  -0.00000

 Dipole moment (field-independent basis, Debye):
    X=             -0.0000    Y=             -0.0000    Z=              0.0000  Tot=              0.0000
 Quadrupole moment (field-independent basis, Debye-Ang):
   XX=             -7.2421   YY=             -7.2421   ZZ=             -9.1158
   XY=              0.0000   XZ=             -0.0000   YZ=             -0.0000

  Exact polarizability:  15.608   0.000  15.608  -0.000   0.000  15.572
 Approx polarizability:  12.124  -0.000  12.124  -0.000   0.000  11.203

                     1                      2                      3
                    A2"                    E'                     E'
 Frequencies --   492.9438              1424.1711              1424.1711
 Red. masses --     1.2356                 1.1018                 1.1018
 Frc consts  --     0.1769                 1.3166                 1.3166
 IR Inten    --    76.9673                 1.7680                 1.7680

                     4                      5                      6
                    A1'                    E'                     E'
 Frequencies --  3166.8740              3366.3790              3366.3790
 Red. masses --     1.0078                 1.1187                 1.1187
 Frc consts  --     5.9552                 7.4694                 7.4694
 IR Inten    --     0.0000                 3.0054                 3.0054

 - Thermochemistry -
 -------------------
 Temperature   298.150 Kelvin.  Pressure   1.00000 Atm.
 Atom     1 has atomic number  6 and mass  12.00000

 Molecular mass:    15.02348 amu.
 Principal axes and moments of inertia in atomic units:
                           1         2         3
     Eigenvalues --     6.38567   6.38567  12.77135
           X            0.82460  -0.56571   0.00000
           Y            0.56571   0.82460   0.00000
           Z            0.00000  -0.00000   1.00000
 This molecule is an oblate symmetric top.
 Rotational symmetry number  6.
 Rotational temperatures (Kelvin)     13.56377    13.56377     6.78189
 Rotational constants (GHZ):         282.62349   282.62349   141.31174
 Zero-point vibrational energy      79198.3 (Joules/Mol)
                                   18.92884 (Kcal/Mol)
 Warning -- explicit consideration of   1 degrees of freedom as
           vibrations may cause significant error
 Vibrational temperatures:    709.24  2049.06  2049.06  4556.42  4843.46
          (Kelvin)           4843.46

 Zero-point correction=                           0.030165 (Hartree/Particle)
 Thermal correction to Energy=                    0.033240
 Thermal correction to Enthalpy=                  0.034185
 Thermal correction to Gibbs Free Energy=         0.012038
 Sum of electronic and zero-point Energies=            -39.668101
 Sum of electronic and thermal Energies=               -39.665025
 Sum of electronic and thermal Enthalpies=             -39.664081
 Sum of electronic and thermal Free Energies=          -39.686227

                     E (Thermal)             CV                S
                      KCal/Mol        Cal/Mol-Kelvin    Cal/Mol-Kelvin
 Total                   20.859              7.422             46.611
 Electronic               0.000              0.000              1.377
 Translational            0.889              2.981             34.068
 Rotational               0.889              2.981             10.458
 Vibrational             19.081              1.461              0.708
 Vibration     1          0.849              1.266              0.676

 Optimization completed.
    -- Stationary point found.
 Normal termination of Gaussian 09 at Sat Aug 17 18:02:02 2024.
