 Gaussian 09, Revision A.02,
 Gaussian 09:  EM64L-G09RevA.02 11-Jun-2009

 -----------------------------------------------------------------
 #p mp2/6-31++G opt freq symmetry=(follow,pg=C3v) pop=full gfinput
 -----------------------------------------------------------------

 ----------------------------------------------------------
 methyl with imposed symmetry and hf/6-31++G basis function
 ----------------------------------------------------------
 Symbolic Z-matrix:
 Charge =  0 Multiplicity = 2

 SCF Done:  E(UHF) =  -39.5481754064     A.U. after   11 cycles
 E2 =    -0.7773418854D-01 EUMP2 =    -0.39625909594966D+02
 SCF Done:  E(UHF) =  -39.5485793582     A.U. after    9 cycles
 E2 =    -0.7740371162D-01 EUMP2 =    -0.39625983069799D+02
 Optimization completed.
    -- Stationary point found.
 Normal termination of Gaussian 09 at Sat Aug 17 18:00:07 2024.

 ---------------------------------------------------------------------
 #P Geom=AllCheck Guess=TCheck SCRF=Check GenChk UMP2(FC)/6-31++G Freq
 ---------------------------------------------------------------------

 methyl with imposed symmetry and hf/6-31++G basis function
 ----------------------------------------------------------
 Redundant internal coordinates taken from checkpoint file:
 /home/ospite/Desktop/MMfP/Project6/CH3/g09/MP2/Gau-8859.chk
 Charge =  0 Multiplicity = 2

                         Standard orientation:
 ---------------------------------------------------------------------
 Center     Atomic      Atomic             Coordinates (Angstroms)
 Number     Number       Type             X           Y           Z
 ---------------------------------------------------------------------
      1          6           0        0.000000    0.000000    0.000000
      2          1           0        0.000000    1.083494   -0.000000
      3          1           0        0.938334   -0.541747   -0.000000
      4          1           0       -0.938334   -0.541747   -0.000000
 ---------------------------------------------------------------------

 SCF Done:  E(UHF) =  -39.5485793582     A.U. after    1 cycles
 E2 =    -0.7740371169D-01 EUMP2 =    -0.39625983069874D+02
 E2 =    -0.7740371169D-01 EUMP2 =    -0.39625983069874D+02

 The electronic state is 2-A2".
 Alpha  occ. eigenvalues --  -11.24109  -0.95226  -0.58142  -0.58142  -0.38532
 Alpha virt. eigenvalues --    0.04589   0.07738   0.07738   0.13392   0.17475
 Alpha virt. eigenvalues --    0.17475   0.21203   0.32944   0.36095   0.36095
 Alpha virt. eigenvalues --    0.86386   0.92564   0.92564   1.20766   1.26930

  Beta  occ. eigenvalues --  -11.21632  -0.85490  -0.56462  -0.56462
  Beta virt. eigenvalues --    0.04818   0.07078   0.07817   0.07817   0.17565
  Beta virt. eigenvalues --    0.17565   0.22482   0.22986   0.35938   0.37011
  Beta virt. eigenvalues --    0.37011   0.94225   0.94225   0.98962   1.23947

 Mulliken atomic charges:
              1
     1  C   -0.442094
     2  H    0.147365
     3  H    0.147365
     4  H    0.147365
 Sum of Mulliken atomic charges =  -0.00000

 Dipole moment (field-independent basis, Debye):
    X=              0.0000    Y=             -0.0000    Z=             -0.0000  Tot=              0.0000
 Quadrupole moment (field-independent basis, Debye-Ang):
   XX=             -7.3285   YY=             -7.3285   ZZ=             -9.1983
   XY=             -0.0000   XZ=              0.0000   YZ=              0.0000

  Exact polarizability:  12.473  -0.000  12.473   0.000  -0.000  10.269
 Approx polarizability:   9.384  -0.000   9.384   0.000   0.000   5.598

                     1                      2                      3
                    A2"                    E'                     E'
 Frequencies --   537.3451              1479.8211              1479.8211
 Red. masses --     1.2356                 1.1033                 1.1033
 Frc consts  --     0.2102                 1.4235                 1.4235
 IR Inten    --   122.3230                 4.9602                 4.9602

                     4                      5                      6
                    A1'                    E'                     E'
 Frequencies --  3164.1360              3357.0527              3357.0527
 Red. masses --     1.0078                 1.1171                 1.1171
 Frc consts  --     5.9449                 7.4174                 7.4174
 IR Inten    --     0.0000                 8.7295                 8.7295

 - Thermochemistry -
 -------------------
 Temperature   298.150 Kelvin.  Pressure   1.00000 Atm.
 Atom     1 has atomic number  6 and mass  12.00000

 Molecular mass:    15.02348 amu.
 Principal axes and moments of inertia in atomic units:
                           1         2         3
     Eigenvalues --     6.33764   6.33764  12.67528
           X           -0.25652   0.96654   0.00000
           Y            0.96654   0.25652   0.00000
           Z           -0.00000  -0.00000   1.00000
 This molecule is an oblate symmetric top.
 Rotational symmetry number  6.
 Rotational temperatures (Kelvin)     13.66658    13.66658     6.83329
 Rotational constants (GHZ):         284.76557   284.76557   142.38279
 Zero-point vibrational energy      80001.6 (Joules/Mol)
                                   19.12085 (Kcal/Mol)
 Warning -- explicit consideration of   1 degrees of freedom as
           vibrations may cause significant error
 Vibrational temperatures:    773.12  2129.13  2129.13  4552.48  4830.04
          (Kelvin)           4830.04

 Zero-point correction=                           0.030471 (Hartree/Particle)
 Thermal correction to Energy=                    0.033512
 Thermal correction to Enthalpy=                  0.034456
 Thermal correction to Gibbs Free Energy=         0.012374
 Sum of electronic and zero-point Energies=            -39.595512
 Sum of electronic and thermal Energies=               -39.592471
 Sum of electronic and thermal Enthalpies=             -39.591527
 Sum of electronic and thermal Free Energies=          -39.613609

                     E (Thermal)             CV                S
                      KCal/Mol        Cal/Mol-Kelvin    Cal/Mol-Kelvin
 Total                   21.029              7.290             46.477
 Electronic               0.000              0.000              1.377
 Translational            0.889              2.981             34.068
 Rotational               0.889              2.981             10.435
 Vibrational             19.252              1.328              0.597
 Vibration     1          0.892              1.167              0.571

 Optimization completed.
    -- Stationary point found.
 Normal termination of Gaussian 09 at Sat Aug 17 18:00:15 2024.
