 Gaussian 09, Revision A.02,
 Gaussian 09:  EM64L-G09RevA.02 11-Jun-2009

 ---------------------------------------------------------------
 #p mp2/6-31G opt freq symmetry=(follow,pg=C3v) pop=full gfinput
 ---------------------------------------------------------------

 -----------------------------------------------------------
 methyl with imposed symmetry Td and hf/6-31G basis function
 -----------------------------------------------------------
 Symbolic Z-matrix:
 Charge =  0 Multiplicity = 2

 SCF Done:  E(UHF) =  -39.5459551106     A.U. after   11 cycles
 E2 =    -0.7603493172D-01 EUMP2 =    -0.39621990042290D+02
 SCF Done:  E(UHF) =  -39.5464001209     A.U. after    9 cycles
 E2 =    -0.7568032811D-01 EUMP2 =    -0.39622080449044D+02
 Optimization completed.
    -- Stationary point found.
 Normal termination of Gaussian 09 at Sat Aug 17 18:02:39 2024.

 -------------------------------------------------------------------
 #P Geom=AllCheck Guess=TCheck SCRF=Check GenChk UMP2(FC)/6-31G Freq
 -------------------------------------------------------------------

 methyl with imposed symmetry Td and hf/6-31G basis function
 -----------------------------------------------------------
 Redundant internal coordinates taken from checkpoint file:
 /home/ospite/Desktop/MMfP/Project6/CH3/g09/MP2/Gau-8968.chk
 Charge =  0 Multiplicity = 2

                         Standard orientation:
 ---------------------------------------------------------------------
 Center     Atomic      Atomic             Coordinates (Angstroms)
 Number     Number       Type             X           Y           Z
 ---------------------------------------------------------------------
      1          6           0        0.000000    0.000000    0.000000
      2          1           0        0.000000    1.082764   -0.000000
      3          1           0        0.937701   -0.541382    0.000000
      4          1           0       -0.937701   -0.541382    0.000000
 ---------------------------------------------------------------------

 SCF Done:  E(UHF) =  -39.5464001209     A.U. after    1 cycles
 E2 =    -0.7568032811D-01 EUMP2 =    -0.39622080449047D+02
 E2 =    -0.7568032811D-01 EUMP2 =    -0.39622080449047D+02

 The electronic state is 2-A2".
 Alpha  occ. eigenvalues --  -11.23317  -0.94837  -0.57651  -0.57651  -0.38521
 Alpha virt. eigenvalues --    0.25190   0.32652   0.32652   0.74480   0.75430
 Alpha virt. eigenvalues --    0.75430   0.93696   1.21453   1.24854   1.24854
  Beta  occ. eigenvalues --  -11.20769  -0.84789  -0.55910  -0.55910
  Beta virt. eigenvalues --    0.15275   0.27683   0.33614   0.33614   0.76733
  Beta virt. eigenvalues --    0.76733   0.89171   0.96958   1.24264   1.25383
  Beta virt. eigenvalues --    1.25383

 Mulliken atomic charges:
              1
     1  C   -0.459271
     2  H    0.153090
     3  H    0.153090
     4  H    0.153090
 Sum of Mulliken atomic charges =   0.00000

 Dipole moment (field-independent basis, Debye):
    X=             -0.0000    Y=             -0.0000    Z=             -0.0000  Tot=              0.0000
 Quadrupole moment (field-independent basis, Debye-Ang):
   XX=             -7.1827   YY=             -7.1827   ZZ=             -8.7770
   XY=             -0.0000   XZ=             -0.0000   YZ=             -0.0000

  Exact polarizability:  11.579  -0.000  11.579   0.000  -0.000   4.229
 Approx polarizability:   8.881  -0.000   8.881  -0.000   0.000   2.981

                     1                      2                      3
                    A2"                    E'                     E'
 Frequencies --   476.7358              1492.3089              1492.3089
 Red. masses --     1.2356                 1.1034                 1.1034
 Frc consts  --     0.1655                 1.4478                 1.4478
 IR Inten    --    96.2483                 2.8834                 2.8834

                     4                      5                      6
                    A1'                    E'                     E'
 Frequencies --  3176.3782              3369.4327              3369.4327
 Red. masses --     1.0078                 1.1170                 1.1170
 Frc consts  --     5.9910                 7.4714                 7.4714
 IR Inten    --     0.0000                10.0234                10.0234

 - Thermochemistry -
 -------------------
 Temperature   298.150 Kelvin.  Pressure   1.00000 Atm.
 Atom     1 has atomic number  6 and mass  12.00000

 Molecular mass:    15.02348 amu.
 Principal axes and moments of inertia in atomic units:
                           1         2         3
     Eigenvalues --     6.32909   6.32909  12.65818
           X           -0.41786   0.90851   0.00000
           Y            0.90851   0.41786   0.00000
           Z           -0.00000  -0.00000   1.00000
 This molecule is an oblate symmetric top.
 Rotational symmetry number  6.
 Rotational temperatures (Kelvin)     13.68503    13.68503     6.84252
 Rotational constants (GHZ):         285.15012   285.15012   142.57506
 Zero-point vibrational energy      80009.8 (Joules/Mol)
                                   19.12281 (Kcal/Mol)
 Warning -- explicit consideration of   1 degrees of freedom as
           vibrations may cause significant error
 Vibrational temperatures:    685.92  2147.10  2147.10  4570.09  4847.86
          (Kelvin)           4847.86

 Zero-point correction=                           0.030474 (Hartree/Particle)
 Thermal correction to Energy=                    0.033559
 Thermal correction to Enthalpy=                  0.034503
 Thermal correction to Gibbs Free Energy=         0.012352
 Sum of electronic and zero-point Energies=            -39.591606
 Sum of electronic and thermal Energies=               -39.588522
 Sum of electronic and thermal Enthalpies=             -39.587578
 Sum of electronic and thermal Free Energies=          -39.609728

                     E (Thermal)             CV                S
                      KCal/Mol        Cal/Mol-Kelvin    Cal/Mol-Kelvin
 Total                   21.058              7.417             46.620
 Electronic               0.000              0.000              1.377
 Translational            0.889              2.981             34.068
 Rotational               0.889              2.981             10.431
 Vibrational             19.281              1.456              0.743
 Vibration     1          0.833              1.302              0.719

 Optimization completed.
    -- Stationary point found.
 Normal termination of Gaussian 09 at Sat Aug 17 18:02:45 2024.
