 Gaussian 09, Revision A.02,
 Gaussian 09:  EM64L-G09RevA.02 11-Jun-2009

 ----------------------------------------------------------------
 #p mp2/6-31+G opt freq symmetry=(follow,pg=C3v) pop=full gfinput
 ----------------------------------------------------------------

 ---------------------------------------------------------
 methyl with imposed symmetry and hf/6-31+G basis function
 ---------------------------------------------------------
 Symbolic Z-matrix:
 Charge =  0 Multiplicity = 2

 SCF Done:  E(UHF) =  -39.5480814674     A.U. after   11 cycles
 E2 =    -0.7764379514D-01 EUMP2 =    -0.39625725262531D+02
 SCF Done:  E(UHF) =  -39.5484854608     A.U. after    9 cycles
 E2 =    -0.7731162349D-01 EUMP2 =    -0.39625797084279D+02
 Optimization completed.
    -- Stationary point found.
 Normal termination of Gaussian 09 at Sat Aug 17 18:00:51 2024.

 --------------------------------------------------------------------
 #P Geom=AllCheck Guess=TCheck SCRF=Check GenChk UMP2(FC)/6-31+G Freq
 --------------------------------------------------------------------

 methyl with imposed symmetry and hf/6-31+G basis function
 ---------------------------------------------------------
 Redundant internal coordinates taken from checkpoint file:
 /home/ospite/Desktop/MMfP/Project6/CH3/g09/MP2/Gau-8880.chk
 Charge =  0 Multiplicity = 2

                         Standard orientation:
 ---------------------------------------------------------------------
 Center     Atomic      Atomic             Coordinates (Angstroms)
 Number     Number       Type             X           Y           Z
 ---------------------------------------------------------------------
      1          6           0        0.000000    0.000000    0.000000
      2          1           0        0.000000    1.083563   -0.000000
      3          1           0        0.938393   -0.541781   -0.000000
      4          1           0       -0.938393   -0.541781    0.000000
 ---------------------------------------------------------------------

 SCF Done:  E(UHF) =  -39.5484854608     A.U. after    1 cycles
 E2 =    -0.7731162358D-01 EUMP2 =    -0.39625797084362D+02
 E2 =    -0.7731162358D-01 EUMP2 =    -0.39625797084362D+02

 The electronic state is 2-A2".
 Alpha  occ. eigenvalues --  -11.24101  -0.95232  -0.58148  -0.58148  -0.38539
 Alpha virt. eigenvalues --    0.09681   0.11918   0.11918   0.13394   0.32800
 Alpha virt. eigenvalues --    0.34087   0.34087   0.85658   0.85658   0.86383
 Alpha virt. eigenvalues --    1.05809   1.26758   1.30619   1.30619
  Beta  occ. eigenvalues --  -11.21624  -0.85486  -0.56465  -0.56465
  Beta virt. eigenvalues --    0.07067   0.10540   0.12096   0.12096   0.22982
  Beta virt. eigenvalues --    0.34853   0.34853   0.35708   0.87421   0.87421
  Beta virt. eigenvalues --    0.98957   1.09382   1.28141   1.30705   1.30705

 Mulliken atomic charges:
              1
     1  C   -0.503872
     2  H    0.167957
     3  H    0.167957
     4  H    0.167957
 Sum of Mulliken atomic charges =  -0.00000

 Dipole moment (field-independent basis, Debye):
    X=             -0.0000    Y=              0.0000    Z=              0.0000  Tot=              0.0000
 Quadrupole moment (field-independent basis, Debye-Ang):
   XX=             -7.3225   YY=             -7.3225   ZZ=             -9.2070
   XY=             -0.0000   XZ=              0.0000   YZ=             -0.0000

  Exact polarizability:  12.073  -0.000  12.073   0.000  -0.000   9.846
 Approx polarizability:   9.183  -0.000   9.183  -0.000  -0.000   5.323

                     1                      2                      3
                    A2"                    E'                     E'
 Frequencies --   539.4675              1480.0915              1480.0915
 Red. masses --     1.2356                 1.1033                 1.1033
 Frc consts  --     0.2119                 1.4240                 1.4240
 IR Inten    --   120.9036                 4.7949                 4.7949

                     4                      5                      6
                    A1'                    E'                     E'
 Frequencies --  3165.8344              3359.0176              3359.0176
 Red. masses --     1.0078                 1.1171                 1.1171
 Frc consts  --     5.9513                 7.4262                 7.4262
 IR Inten    --     0.0000                 7.2977                 7.2977

 - Thermochemistry -
 -------------------
 Temperature   298.150 Kelvin.  Pressure   1.00000 Atm.
 Atom     1 has atomic number  6 and mass  12.00000

 Molecular mass:    15.02348 amu.
 Principal axes and moments of inertia in atomic units:
                           1         2         3
     Eigenvalues --     6.33844   6.33844  12.67688
           X           -0.62440   0.78111   0.00000
           Y            0.78111   0.62440   0.00000
           Z            0.00000  -0.00000   1.00000
 This molecule is an oblate symmetric top.
 Rotational symmetry number  6.
 Rotational temperatures (Kelvin)     13.66485    13.66485     6.83242
 Rotational constants (GHZ):         284.72952   284.72952   142.36476
 Zero-point vibrational energy      80051.2 (Joules/Mol)
                                   19.13270 (Kcal/Mol)
 Warning -- explicit consideration of   1 degrees of freedom as
           vibrations may cause significant error
 Vibrational temperatures:    776.17  2129.52  2129.52  4554.92  4832.87
          (Kelvin)           4832.87

 Zero-point correction=                           0.030490 (Hartree/Particle)
 Thermal correction to Energy=                    0.033530
 Thermal correction to Enthalpy=                  0.034474
 Thermal correction to Gibbs Free Energy=         0.012393
 Sum of electronic and zero-point Energies=            -39.595307
 Sum of electronic and thermal Energies=               -39.592267
 Sum of electronic and thermal Enthalpies=             -39.591323
 Sum of electronic and thermal Free Energies=          -39.613404

                     E (Thermal)             CV                S
                      KCal/Mol        Cal/Mol-Kelvin    Cal/Mol-Kelvin
 Total                   21.040              7.285             46.473
 Electronic               0.000              0.000              1.377
 Translational            0.889              2.981             34.068
 Rotational               0.889              2.981             10.435
 Vibrational             19.263              1.324              0.592
 Vibration     1          0.895              1.163              0.566

 Optimization completed.
    -- Stationary point found.
 Normal termination of Gaussian 09 at Sat Aug 17 18:01:02 2024.
