 Gaussian 09, Revision A.02,
 Gaussian 09:  EM64L-G09RevA.02 11-Jun-2009

 -----------------------------------------------------------------
 #p mp2/cc-pVDZ opt freq symmetry=(follow,pg=C3v) pop=full gfinput
 -----------------------------------------------------------------

 --------------------------------------------------
 methyl with imposed symmetry and cc-pVDZ basis set
 --------------------------------------------------
 Symbolic Z-matrix:
 Charge =  0 Multiplicity = 2

 SCF Done:  E(UHF) =  -39.5636539306     A.U. after   11 cycles
 E2 =    -0.1269861133D+00 EUMP2 =    -0.39690640043886D+02
 Optimization completed.
    -- Stationary point found.
 Normal termination of Gaussian 09 at Sun Aug 18 00:17:51 2024.

 ---------------------------------------------------------------------
 #P Geom=AllCheck Guess=TCheck SCRF=Check GenChk UMP2(FC)/CC-pVDZ Freq
 ---------------------------------------------------------------------

 methyl with imposed symmetry and cc-pVDZ basis set
 --------------------------------------------------
 Redundant internal coordinates taken from checkpoint file:
 /home/ospite/Desktop/MMfP/Project6/CH3/g09/MP2/Gau-18706.chk
 Charge =  0 Multiplicity = 2

                         Standard orientation:
 ---------------------------------------------------------------------
 Center     Atomic      Atomic             Coordinates (Angstroms)
 Number     Number       Type             X           Y           Z
 ---------------------------------------------------------------------
      1          6           0        0.000000    0.000000    0.000000
      2          1           0        0.000000    1.090000   -0.000000
      3          1           0        0.943968   -0.545000   -0.000000
      4          1           0       -0.943968   -0.545000   -0.000000
 ---------------------------------------------------------------------

 SCF Done:  E(UHF) =  -39.5636539306     A.U. after    1 cycles
 E2 =    -0.1269861133D+00 EUMP2 =    -0.39690640043943D+02
 E2 =    -0.1269861133D+00 EUMP2 =    -0.39690640043943D+02

 The electronic state is 2-A2".
 Alpha  occ. eigenvalues --  -11.24253  -0.94221  -0.57367  -0.57367  -0.38332
 Alpha virt. eigenvalues --    0.19250   0.26715   0.26715   0.61533   0.61533
 Alpha virt. eigenvalues --    0.66841   0.69417   0.89255   0.89255   1.05230
 Alpha virt. eigenvalues --    1.18393   1.18393   1.61760   1.71569   1.71569

  Beta  occ. eigenvalues --  -11.21799  -0.84914  -0.55859  -0.55859
  Beta virt. eigenvalues --    0.14309   0.20876   0.27440   0.27440   0.61922
  Beta virt. eigenvalues --    0.61922   0.74419   0.81543   0.90638   0.90638
  Beta virt. eigenvalues --    1.08845   1.24958   1.24958   1.61293   1.72020

 Mulliken atomic charges:
              1
     1  C   -0.188263
     2  H    0.062754
     3  H    0.062754
     4  H    0.062754
 Sum of Mulliken atomic charges =   0.00000

 Dipole moment (field-independent basis, Debye):
    X=              0.0000    Y=             -0.0000    Z=              0.0000  Tot=              0.0000
 Quadrupole moment (field-independent basis, Debye-Ang):
   XX=             -7.1515   YY=             -7.1515   ZZ=             -8.7907
   XY=             -0.0000   XZ=              0.0000   YZ=             -0.0000

  Exact polarizability:  12.263  -0.000  12.263   0.000  -0.000   6.654
 Approx polarizability:   9.684  -0.000   9.684  -0.000  -0.000   5.740

                     1                      2                      3
                    A2"                    E'                     E'
 Frequencies --   388.0981              1428.4646              1428.4646
 Red. masses --     1.2356                 1.1014                 1.1014
 Frc consts  --     0.1097                 1.3242                 1.3242
 IR Inten    --    71.4452                 2.4429                 2.4429

                     4                      5                      6
                    A1'                    E'                     E'
 Frequencies --  3175.4513              3379.5932              3379.5932
 Red. masses --     1.0078                 1.1190                 1.1190
 Frc consts  --     5.9875                 7.5303                 7.5303
 IR Inten    --     0.0000                 1.9291                 1.9291

 - Thermochemistry -
 -------------------
 Temperature   298.150 Kelvin.  Pressure   1.00000 Atm.
 Atom     1 has atomic number  6 and mass  12.00000

 Molecular mass:    15.02348 amu.
 Principal axes and moments of inertia in atomic units:
                           1         2         3
     Eigenvalues --     6.41397   6.41397  12.82795
           X           -0.52928   0.84845   0.00000
           Y            0.84845   0.52928   0.00000
           Z            0.00000  -0.00000   1.00000
 This molecule is an oblate symmetric top.
 Rotational symmetry number  6.
 Rotational temperatures (Kelvin)     13.50393    13.50393     6.75196
 Rotational constants (GHZ):         281.37648   281.37648   140.68824
 Zero-point vibrational energy      78831.9 (Joules/Mol)
                                   18.84128 (Kcal/Mol)
 Warning -- explicit consideration of   1 degrees of freedom as
           vibrations may cause significant error
 Vibrational temperatures:    558.39  2055.24  2055.24  4568.76  4862.47
          (Kelvin)           4862.47

 Zero-point correction=                           0.030025 (Hartree/Particle)
 Thermal correction to Energy=                    0.033192
 Thermal correction to Enthalpy=                  0.034137
 Thermal correction to Gibbs Free Energy=         0.011827
 Sum of electronic and zero-point Energies=            -39.660615
 Sum of electronic and thermal Energies=               -39.657448
 Sum of electronic and thermal Enthalpies=             -39.656503
 Sum of electronic and thermal Free Energies=          -39.678813

                     E (Thermal)             CV                S
                      KCal/Mol        Cal/Mol-Kelvin    Cal/Mol-Kelvin
 Total                   20.829              7.649             46.955
 Electronic               0.000              0.000              1.377
 Translational            0.889              2.981             34.068
 Rotational               0.889              2.981             10.471
 Vibrational             19.051              1.688              1.039
 Vibration     1          0.756              1.496              1.007

 Optimization completed.
    -- Stationary point found.
 Normal termination of Gaussian 09 at Sun Aug 18 00:18:01 2024.
