 Gaussian 09, Revision A.02,
 Gaussian 09:  EM64L-G09RevA.02 11-Jun-2009

 -----------------------------------------------------------------
 #p mp2/cc-pVQZ opt freq symmetry=(follow,pg=C3v) pop=full gfinput
 -----------------------------------------------------------------

 --------------------------------------------------
 methyl with imposed symmetry and cc-pVQZ basis set
 --------------------------------------------------
 Symbolic Z-matrix:
 Charge =  0 Multiplicity = 2

 SCF Done:  E(UHF) =  -39.5796261901     A.U. after   12 cycles
 E2 =    -0.1684921964D+00 EUMP2 =    -0.39748118386552D+02
 SCF Done:  E(UHF) =  -39.5804055706     A.U. after    9 cycles
 E2 =    -0.1682853793D+00 EUMP2 =    -0.39748690949904D+02
 SCF Done:  E(UHF) =  -39.5803970990     A.U. after    7 cycles
 E2 =    -0.1682956440D+00 EUMP2 =    -0.39748692742960D+02
 Optimization completed.
    -- Stationary point found.

 The electronic state is 2-A.
 Alpha  occ. eigenvalues --  -11.23130  -0.94947  -0.58252  -0.58252  -0.38454
 Alpha virt. eigenvalues --    0.12250   0.19188   0.19188   0.29224   0.29224
 Alpha virt. eigenvalues --    0.32909   0.39760   0.47924   0.54987   0.54987
 Alpha virt. eigenvalues --    0.56175   0.56175   0.77914   0.77949   0.81632

  Beta  occ. eigenvalues --  -11.20839  -0.85923  -0.56844  -0.56844
  Beta virt. eigenvalues --    0.10939   0.12982   0.19516   0.19516   0.29435
  Beta virt. eigenvalues --    0.29435   0.43186   0.43713   0.50872   0.55706
  Beta virt. eigenvalues --    0.55706   0.60208   0.60208   0.77756   0.80334

 Mulliken atomic charges:
              1
     1  C   -0.267817
     2  H    0.089272
     3  H    0.089272
     4  H    0.089272
 Sum of Mulliken atomic charges =  -0.00000

 Dipole moment (field-independent basis, Debye):
    X=             -0.0000    Y=              0.0000    Z=              0.0000  Tot=              0.0000
 Quadrupole moment (field-independent basis, Debye-Ang):
   XX=             -0.6671   YY=             -7.1917   ZZ=            -15.4880
   XY=             -0.0000   XZ=             -0.0000   YZ=              0.0000

 Normal termination of Gaussian 09 at Sun Aug 18 15:07:15 2024.

 ---------------------------------------------------------------------
 #P Geom=AllCheck Guess=TCheck SCRF=Check GenChk UMP2(FC)/CC-pVQZ Freq
 ---------------------------------------------------------------------

 methyl with imposed symmetry and cc-pVQZ basis set
 --------------------------------------------------
 Redundant internal coordinates taken from checkpoint file:
 /home/ospite/Desktop/MMfP/Project6/CH3/g09/MP2/Gau-7563.chk
 Charge =  0 Multiplicity = 2

                         Standard orientation:
 ---------------------------------------------------------------------
 Center     Atomic      Atomic             Coordinates (Angstroms)
 Number     Number       Type             X           Y           Z
 ---------------------------------------------------------------------
      1          6           0        0.000000    0.000000   -0.000000
      2          1           0       -0.000004   -1.073075    0.000000
      3          1           0       -0.929309    0.536541   -0.000000
      4          1           0        0.929313    0.536534    0.000000
 ---------------------------------------------------------------------

 SCF Done:  E(UHF) =  -39.5803970990     A.U. after    1 cycles
 Error termination via Lnk1e in /programs/64bit/g09/g09-gfortran/bin/l906.exe at Sun Aug 18 15:07:29 2024.
