 Gaussian 09, Revision A.02,
 Gaussian 09:  EM64L-G09RevA.02 11-Jun-2009

 -----------------------------------------------------------------
 #p mp2/cc-pVTZ opt freq symmetry=(follow,pg=C3v) pop=full gfinput
 -----------------------------------------------------------------

 --------------------------------------------------
 methyl with imposed symmetry and cc-pVTZ basis set
 --------------------------------------------------
 Symbolic Z-matrix:
 Charge =  0 Multiplicity = 2

 SCF Done:  E(UHF) =  -39.5768689436     A.U. after   11 cycles
 E2 =    -0.1583327943D+00 EUMP2 =    -0.39735201737847D+02
 SCF Done:  E(UHF) =  -39.5775936691     A.U. after    9 cycles
 E2 =    -0.1580951815D+00 EUMP2 =    -0.39735688850561D+02
 SCF Done:  E(UHF) =  -39.5775829144     A.U. after    8 cycles
 E2 =    -0.1581075507D+00 EUMP2 =    -0.39735690465074D+02
 Optimization completed.
    -- Stationary point found.
 Normal termination of Gaussian 09 at Sun Aug 18 00:19:07 2024.

 ---------------------------------------------------------------------
 #P Geom=AllCheck Guess=TCheck SCRF=Check GenChk UMP2(FC)/CC-pVTZ Freq
 ---------------------------------------------------------------------

 methyl with imposed symmetry and cc-pVTZ basis set
 --------------------------------------------------
 Redundant internal coordinates taken from checkpoint file:
 /home/ospite/Desktop/MMfP/Project6/CH3/g09/MP2/Gau-18722.chk
 Charge =  0 Multiplicity = 2

                         Standard orientation:
 ---------------------------------------------------------------------
 Center     Atomic      Atomic             Coordinates (Angstroms)
 Number     Number       Type             X           Y           Z
 ---------------------------------------------------------------------
      1          6           0        0.000000    0.000000    0.000000
      2          1           0        0.000000    1.074387    0.000000
      3          1           0       -0.930446   -0.537193    0.000000
      4          1           0        0.930446   -0.537193    0.000000
 ---------------------------------------------------------------------

 SCF Done:  E(UHF) =  -39.5775829144     A.U. after    1 cycles
 E2 =    -0.1581075506D+00 EUMP2 =    -0.39735690464999D+02
 E2 =    -0.1581075506D+00 EUMP2 =    -0.39735690464999D+02

 The electronic state is 2-A2".
 Alpha  occ. eigenvalues --  -11.23161  -0.94866  -0.58131  -0.58131  -0.38452
 Alpha virt. eigenvalues --    0.15043   0.22250   0.22250   0.37663   0.37663
 Alpha virt. eigenvalues --    0.44065   0.48980   0.62261   0.66676   0.66676
 Alpha virt. eigenvalues --    0.73256   0.73256   1.03243   1.06877   1.09298

  Beta  occ. eigenvalues --  -11.20876  -0.85788  -0.56709  -0.56709
  Beta virt. eigenvalues --    0.12204   0.16045   0.22695   0.22695   0.37949
  Beta virt. eigenvalues --    0.37949   0.53646   0.56401   0.64866   0.67649
  Beta virt. eigenvalues --    0.67649   0.78266   0.78266   1.02962   1.09858

 Mulliken atomic charges:
              1
     1  C   -0.370624
     2  H    0.123541
     3  H    0.123541
     4  H    0.123541
 Sum of Mulliken atomic charges =  -0.00000

 Dipole moment (field-independent basis, Debye):
    X=              0.0000    Y=             -0.0000    Z=              0.0000  Tot=              0.0000
 Quadrupole moment (field-independent basis, Debye-Ang):
   XX=             -7.1883   YY=             -7.1883   ZZ=             -8.9140
   XY=             -0.0000   XZ=              0.0000   YZ=             -0.0000

  Exact polarizability:  13.525   0.000  13.525   0.000   0.000  10.139
 Approx polarizability:  10.808  -0.000  10.808  -0.000  -0.000   8.384

                     1                      2                      3
                    A2"                    E'                     E'
 Frequencies --   485.9250              1445.3946              1445.3946
 Red. masses --     1.2356                 1.1017                 1.1017
 Frc consts  --     0.1719                 1.3561                 1.3561
 IR Inten    --    77.6320                 2.6518                 2.6518

                     4                      5                      6
                    A1'                    E'                     E'
 Frequencies --  3178.1397              3369.1828              3369.1828
 Red. masses --     1.0078                 1.1187                 1.1187
 Frc consts  --     5.9977                 7.4820                 7.4820
 IR Inten    --     0.0000                 2.0115                 2.0115

 - Thermochemistry -
 -------------------
 Temperature   298.150 Kelvin.  Pressure   1.00000 Atm.
 Atom     1 has atomic number  6 and mass  12.00000

 Molecular mass:    15.02348 amu.
 Principal axes and moments of inertia in atomic units:
                           1         2         3
     Eigenvalues --     6.23154   6.23154  12.46309
           X           -0.61541   0.78821   0.00000
           Y            0.78821   0.61541   0.00000
           Z           -0.00000   0.00000   1.00000
 This molecule is an oblate symmetric top.
 Rotational symmetry number  6.
 Rotational temperatures (Kelvin)     13.89926    13.89926     6.94963
 Rotational constants (GHZ):         289.61386   289.61386   144.80693
 Zero-point vibrational energy      79511.1 (Joules/Mol)
                                   19.00361 (Kcal/Mol)
 Warning -- explicit consideration of   1 degrees of freedom as
           vibrations may cause significant error
 Vibrational temperatures:    699.14  2079.60  2079.60  4572.63  4847.50
          (Kelvin)           4847.50

 Zero-point correction=                           0.030284 (Hartree/Particle)
 Thermal correction to Energy=                    0.033364
 Thermal correction to Enthalpy=                  0.034308
 Thermal correction to Gibbs Free Energy=         0.012189
 Sum of electronic and zero-point Energies=            -39.705406
 Sum of electronic and thermal Energies=               -39.702327
 Sum of electronic and thermal Enthalpies=             -39.701382
 Sum of electronic and thermal Free Energies=          -39.723502

                     E (Thermal)             CV                S
                      KCal/Mol        Cal/Mol-Kelvin    Cal/Mol-Kelvin
 Total                   20.936              7.424             46.554
 Electronic               0.000              0.000              1.377
 Translational            0.889              2.981             34.068
 Rotational               0.889              2.981             10.385
 Vibrational             19.159              1.463              0.724
 Vibration     1          0.842              1.281              0.694

 Optimization completed.
    -- Stationary point found.
 Normal termination of Gaussian 09 at Sun Aug 18 00:22:06 2024.
