 Gaussian 09, Revision A.02,
 Gaussian 09:  EM64L-G09RevA.02 11-Jun-2009

 ----------------------------------------------------------------
 #p mp2/STO-3G opt freq symmetry=(follow,pg=C3v) pop=full gfinput
 ----------------------------------------------------------------

 ---------------------------------------------------------
 methyl with imposed symmetry and hf/STO-3G basis function
 ---------------------------------------------------------
 Symbolic Z-matrix:
 Charge =  0 Multiplicity = 2

 SCF Done:  E(UHF) =  -39.0763541274     A.U. after    9 cycles
 E2 =    -0.3866935231D-01 EUMP2 =    -0.39115023479682D+02
 SCF Done:  E(UHF) =  -39.0762777627     A.U. after    6 cycles
 E2 =    -0.3874771487D-01 EUMP2 =    -0.39115025477531D+02
 Optimization completed.
    -- Stationary point found.
 Normal termination of Gaussian 09 at Sat Aug 17 18:02:11 2024.

 --------------------------------------------------------------------
 #P Geom=AllCheck Guess=TCheck SCRF=Check GenChk UMP2(FC)/STO-3G Freq
 --------------------------------------------------------------------

 methyl with imposed symmetry and hf/STO-3G basis function
 ---------------------------------------------------------
 Redundant internal coordinates taken from checkpoint file:
 /home/ospite/Desktop/MMfP/Project6/CH3/g09/MP2/Gau-8949.chk
 Charge =  0 Multiplicity = 2

                         Standard orientation:
 ---------------------------------------------------------------------
 Center     Atomic      Atomic             Coordinates (Angstroms)
 Number     Number       Type             X           Y           Z
 ---------------------------------------------------------------------
      1          6           0        0.000000    0.000000    0.000000
      2          1           0        0.000000    1.091221   -0.000000
      3          1           0        0.945025   -0.545611   -0.000000
      4          1           0       -0.945025   -0.545611   -0.000000
 ---------------------------------------------------------------------

 SCF Done:  E(UHF) =  -39.0762777627     A.U. after    1 cycles
 E2 =    -0.3874771487D-01 EUMP2 =    -0.39115025477529D+02
 E2 =    -0.3874771487D-01 EUMP2 =    -0.39115025477529D+02

 The electronic state is 2-A2".
 Alpha  occ. eigenvalues --  -11.00532  -0.90075  -0.53334  -0.53334  -0.35524
 Alpha virt. eigenvalues --    0.61565   0.75734   0.75734
  Beta  occ. eigenvalues --  -10.97378  -0.79062  -0.51689  -0.51689
  Beta virt. eigenvalues --    0.33628   0.67793   0.78450   0.78450

 Mulliken atomic charges:
              1
     1  C   -0.169436
     2  H    0.056479
     3  H    0.056479
     4  H    0.056479
 Sum of Mulliken atomic charges =   0.00000

 Dipole moment (field-independent basis, Debye):
    X=              0.0000    Y=             -0.0000    Z=             -0.0000  Tot=              0.0000
 Quadrupole moment (field-independent basis, Debye-Ang):
   XX=             -6.7818   YY=             -6.7818   ZZ=             -7.5462
   XY=             -0.0000   XZ=              0.0000   YZ=              0.0000

  Exact polarizability:   5.628  -0.000   5.628   0.000  -0.000   1.785
 Approx polarizability:   4.645  -0.000   4.645  -0.000   0.000   1.245

 ******    1 imaginary frequencies (negative Signs) ******

                     1                      2                      3
                    A2"                    E'                     E'
 Frequencies --  -475.9528              1597.3661              1597.3661
 Red. masses --     1.2356                 1.0990                 1.0990
 Frc consts  --     0.1649                 1.6523                 1.6523
 IR Inten    --    26.0996                 0.5052                 0.5052

                     4                      5                      6
                    A1'                    E'                     E'
 Frequencies --  3413.5486              3692.9276              3692.9276
 Red. masses --     1.0078                 1.1215                 1.1215
 Frc consts  --     6.9191                 9.0112                 9.0112
 IR Inten    --     0.0000                 0.0916                 0.0916

 - Thermochemistry -
 -------------------
 Temperature   298.150 Kelvin.  Pressure   1.00000 Atm.
 Atom     1 has atomic number  6 and mass  12.00000

 Molecular mass:    15.02348 amu.
 Principal axes and moments of inertia in atomic units:
                           1         2         3
     Eigenvalues --     6.42836   6.42836  12.85671
           X           -0.50193   0.86491   0.00000
           Y            0.86491   0.50193   0.00000
           Z           -0.00000  -0.00000   1.00000
 This molecule is an oblate symmetric top.
 Rotational symmetry number  6.
 Rotational temperatures (Kelvin)     13.47371    13.47371     6.73686
 Rotational constants (GHZ):         280.74695   280.74695   140.37348
    1 imaginary frequencies ignored.
 Zero-point vibrational energy      83703.5 (Joules/Mol)
                                   20.00562 (Kcal/Mol)
 Vibrational temperatures:   2298.25  2298.25  4911.33  5313.29  5313.29
          (Kelvin)

 Zero-point correction=                           0.031881 (Hartree/Particle)
 Thermal correction to Energy=                    0.034720
 Thermal correction to Enthalpy=                  0.035664
 Thermal correction to Gibbs Free Energy=         0.013838
 Sum of electronic and zero-point Energies=            -39.083144
 Sum of electronic and thermal Energies=               -39.080305
 Sum of electronic and thermal Enthalpies=             -39.079361
 Sum of electronic and thermal Free Energies=          -39.101188

                     E (Thermal)             CV                S
                      KCal/Mol        Cal/Mol-Kelvin    Cal/Mol-Kelvin
 Total                   21.787              6.068             45.938
 Electronic               0.000              0.000              1.377
 Translational            0.889              2.981             34.068
 Rotational               0.889              2.981             10.477
 Vibrational             20.010              0.106              0.016

 Optimization completed.
    -- Stationary point found.
 Normal termination of Gaussian 09 at Sat Aug 17 18:02:15 2024.
