 Gaussian 09, Revision A.02,
 Gaussian 09:  EM64L-G09RevA.02 11-Jun-2009

 -----------------------------
 #p B3LYP/6-31+g(d,p) opt freq
 -----------------------------

 -------
 h2o gas
 -------
 Symbolic Z-matrix:
 Charge =  0 Multiplicity = 1

 SCF Done:  E(RB3LYP) =  -76.4333906470     A.U. after   10 cycles
 SCF Done:  E(RB3LYP) =  -76.4340247132     A.U. after    9 cycles
 SCF Done:  E(RB3LYP) =  -76.4340475347     A.U. after    7 cycles
 Optimization completed.
    -- Stationary point found.
 Normal termination of Gaussian 09 at Tue Sep 17 19:10:48 2024.

 ----------------------------------------------------------------------
 #P Geom=AllCheck Guess=TCheck SCRF=Check GenChk RB3LYP/6-31+G(d,p) Fre
 q
 ----------------------------------------------------------------------

 h2o gas
 -------
 Redundant internal coordinates taken from checkpoint file:
 /home/ospite/Desktop/MMfP/Project10/pKa_calcualtion/H2O/Gau-10425.chk
 Charge =  0 Multiplicity = 1

                         Standard orientation:
 ---------------------------------------------------------------------
 Center     Atomic      Atomic             Coordinates (Angstroms)
 Number     Number       Type             X           Y           Z
 ---------------------------------------------------------------------
      1          8           0       -0.000000    0.000000    0.116584
      2          1           0       -0.000000    0.769018   -0.466337
      3          1           0       -0.000000   -0.769018   -0.466337
 ---------------------------------------------------------------------

 SCF Done:  E(RB3LYP) =  -76.4340475347     A.U. after    1 cycles

 The electronic state is 1-A1.
 Alpha  occ. eigenvalues --  -19.16962  -1.02239  -0.54222  -0.39438  -0.32106
 Alpha virt. eigenvalues --    0.02514   0.11453   0.15505   0.15507   0.20608
 Alpha virt. eigenvalues --    0.24212   0.90033   0.98889   1.08831   1.11264
 Alpha virt. eigenvalues --    1.12691   1.23138   1.50310   1.53585   1.63024

 Mulliken atomic charges:
              1
     1  O   -0.711733
     2  H    0.355866
     3  H    0.355866
 Sum of Mulliken atomic charges =   0.00000

 Dipole moment (field-independent basis, Debye):
    X=             -0.0000    Y=              0.0000    Z=             -2.1962  Tot=              2.1962
 Quadrupole moment (field-independent basis, Debye-Ang):
   XX=             -7.8837   YY=             -4.3791   ZZ=             -6.5353
   XY=              0.0000   XZ=              0.0000   YZ=             -0.0000

  Exact polarizability:   6.677  -0.000   7.837   0.000  -0.000   6.579
 Approx polarizability:   6.824   0.000   9.666   0.000  -0.000   7.663

                     1                      2                      3
                    A1                     A1                     B2
 Frequencies --  1603.7394              3811.0254              3932.4264
 Red. masses --     1.0837                 1.0442                 1.0830
 Frc consts  --     1.6422                 8.9354                 9.8675
 IR Inten    --    90.9753                 6.4189                56.9998

 - Thermochemistry -
 -------------------
 Temperature   298.150 Kelvin.  Pressure   1.00000 Atm.
 Atom     1 has atomic number  8 and mass  15.99491

 Molecular mass:    18.01056 amu.
 Principal axes and moments of inertia in atomic units:
                           1         2         3
     Eigenvalues --     2.17214   4.25682   6.42896
           X            0.00000   0.00000   1.00000
           Y            1.00000   0.00000  -0.00000
           Z           -0.00000   1.00000  -0.00000
 This molecule is an asymmetric top.
 Rotational symmetry number  2.
 Rotational temperatures (Kelvin)     39.87490    20.34706    13.47244
 Rotational constants (GHZ):         830.85919   423.96444   280.72053
 Zero-point vibrational energy      55908.6 (Joules/Mol)
                                   13.36248 (Kcal/Mol)
 Vibrational temperatures:   2307.42  5483.21  5657.88
          (Kelvin)

 Zero-point correction=                           0.021294 (Hartree/Particle)
 Thermal correction to Energy=                    0.024130
 Thermal correction to Enthalpy=                  0.025074
 Thermal correction to Gibbs Free Energy=         0.003646
 Sum of electronic and zero-point Energies=            -76.412753
 Sum of electronic and thermal Energies=               -76.409917
 Sum of electronic and thermal Enthalpies=             -76.408973
 Sum of electronic and thermal Free Energies=          -76.430402

                     E (Thermal)             CV                S
                      KCal/Mol        Cal/Mol-Kelvin    Cal/Mol-Kelvin
 Total                   15.142              6.014             45.100
 Electronic               0.000              0.000              0.000
 Translational            0.889              2.981             34.608
 Rotational               0.889              2.981             10.484
 Vibrational             13.364              0.052              0.008

 Optimization completed.
    -- Stationary point found.
 Normal termination of Gaussian 09 at Tue Sep 17 19:10:59 2024.
