 Gaussian 09, Revision A.02,
 Gaussian 09:  EM64L-G09RevA.02 11-Jun-2009

 ------------------------------------------------------
 #p B3LYP/6-31+g(d,p) opt freq scrf=(smd,solvent=water)
 ------------------------------------------------------

 ------------
 h2o solution
 ------------
 Symbolic Z-matrix:
 Charge =  0 Multiplicity = 1

 SCF Done:  E(RB3LYP) =  -76.4470376158     A.U. after    8 cycles
 SCF Done:  E(RB3LYP) =  -76.4480147333     A.U. after    7 cycles
 SCF Done:  E(RB3LYP) =  -76.4480560189     A.U. after    7 cycles
 Optimization completed.
    -- Stationary point found.
 Normal termination of Gaussian 09 at Tue Sep 17 19:17:28 2024.

 ----------------------------------------------------------------------
 #P Geom=AllCheck Guess=TCheck SCRF=Check GenChk RB3LYP/6-31+G(d,p) Fre
 q
 ----------------------------------------------------------------------

 h2o solution
 ------------
 Redundant internal coordinates taken from checkpoint file:
 /home/ospite/Desktop/MMfP/Project10/pKa_calcualtion/H2O/Gau-11390.chk
 Charge =  0 Multiplicity = 1

                         Standard orientation:
 ---------------------------------------------------------------------
 Center     Atomic      Atomic             Coordinates (Angstroms)
 Number     Number       Type             X           Y           Z
 ---------------------------------------------------------------------
      1          8           0       -0.000000    0.000000    0.118616
      2          1           0       -0.000000    0.765066   -0.474465
      3          1           0       -0.000000   -0.765066   -0.474465
 ---------------------------------------------------------------------

 SCF Done:  E(RB3LYP) =  -76.4480560189     A.U. after    1 cycles

 The electronic state is 1-A1.
 Alpha  occ. eigenvalues --  -19.16641  -1.01570  -0.52960  -0.40103  -0.32473
 Alpha virt. eigenvalues --    0.04328   0.12937   0.14275   0.15075   0.21563
 Alpha virt. eigenvalues --    0.26011   0.91787   1.01038   1.08528   1.10667
 Alpha virt. eigenvalues --    1.13152   1.22777   1.51257   1.52730   1.62402

 Mulliken atomic charges:
              1
     1  O   -0.822758
     2  H    0.411379
     3  H    0.411379
 Sum of Mulliken atomic charges =  -0.00000

 Dipole moment (field-independent basis, Debye):
    X=             -0.0000    Y=             -0.0000    Z=             -2.6713  Tot=              2.6713
 Quadrupole moment (field-independent basis, Debye-Ang):
   XX=             -7.9713   YY=             -4.2317   ZZ=             -6.4769
   XY=              0.0000   XZ=              0.0000   YZ=              0.0000

  Exact polarizability:   7.919   0.000   8.921   0.000  -0.000   7.530
 Approx polarizability:   6.950   0.000   9.075   0.000   0.000   7.337

                     1                      2                      3
                    A1                     A1                     B2
 Frequencies --  1573.5519              3779.3725              3872.1706
 Red. masses --     1.0818                 1.0460                 1.0818
 Frc consts  --     1.5781                 8.8030                 9.5566
 IR Inten    --   148.6380                46.6169               156.5377

 - Thermochemistry -
 -------------------
 Temperature   298.150 Kelvin.  Pressure   1.00000 Atm.
 Atom     1 has atomic number  8 and mass  15.99491

 Molecular mass:    18.01056 amu.
 Principal axes and moments of inertia in atomic units:
                           1         2         3
     Eigenvalues --     2.24852   4.21318   6.46170
           X            0.00000   0.00000   1.00000
           Y            1.00000  -0.00000  -0.00000
           Z            0.00000   1.00000  -0.00000
 This molecule is an asymmetric top.
 Rotational symmetry number  2.
 Rotational temperatures (Kelvin)     38.52040    20.55780    13.40418
 Rotational constants (GHZ):         802.63585   428.35565   279.29811
 Zero-point vibrational energy      55178.3 (Joules/Mol)
                                   13.18794 (Kcal/Mol)
 Vibrational temperatures:   2263.99  5437.67  5571.18
          (Kelvin)

 Zero-point correction=                           0.021016 (Hartree/Particle)
 Thermal correction to Energy=                    0.023852
 Thermal correction to Enthalpy=                  0.024797
 Thermal correction to Gibbs Free Energy=         0.003354
 Sum of electronic and zero-point Energies=            -76.427040
 Sum of electronic and thermal Energies=               -76.424204
 Sum of electronic and thermal Enthalpies=             -76.423259
 Sum of electronic and thermal Free Energies=          -76.444702

                     E (Thermal)             CV                S
                      KCal/Mol        Cal/Mol-Kelvin    Cal/Mol-Kelvin
 Total                   14.968              6.019             45.130
 Electronic               0.000              0.000              0.000
 Translational            0.889              2.981             34.608
 Rotational               0.889              2.981             10.514
 Vibrational             13.190              0.058              0.009

 Optimization completed.
    -- Stationary point found.
 Normal termination of Gaussian 09 at Tue Sep 17 19:17:43 2024.
