 Gaussian 09, Revision A.02,
 Gaussian 09:  EM64L-G09RevA.02 11-Jun-2009

 ----------------------------------------------
 #p B3LYP/6-31+g(d,p) opt freq pop=full gfinput
 ----------------------------------------------

 ----------------
 nitrogen_dioxite
 ----------------
 Symbolic Z-matrix:
 Charge =  0 Multiplicity = 2

 SCF Done:  E(UB3LYP) =  -205.083671193     A.U. after   13 cycles
 SCF Done:  E(UB3LYP) =  -205.083873520     A.U. after    9 cycles
 SCF Done:  E(UB3LYP) =  -205.083886296     A.U. after    9 cycles
 SCF Done:  E(UB3LYP) =  -205.083887241     A.U. after    9 cycles
 Optimization completed.
    -- Stationary point found.

 1\1\GINC-MOLMOD\FOpt\UB3LYP\6-31+G(d,p)\N1O2(2)\OSPITE\13-Aug-2024\0\\
 #p B3LYP/6-31+g(d,p) opt freq pop=full gfinput\\nitrogen_dioxite\\0,2\
 N,0.0014460982,0.,0.0006123435\O,0.0024006861,0.,1.2023168773\O,0.8650
 86036,0.,-0.8349837047\\Version=EM64L-G09RevA.02\State=2-A1\HF=-205.08
 38872\S2=0.753563\S2-1=0.\S2A=0.750009\RMSD=1.570e-09\RMSF=7.918e-08\D
 ipole=-0.1288605,0.,-0.0545654\Quadrupole=0.1238152,0.9875909,-1.11140
 61,0.,0.6373247,0.\PG=C02V [C2(N1),SGV(O2)]\\@

 Normal termination of Gaussian 09 at Tue Aug 13 22:24:47 2024.

 ----------------------------------------------------------------------
 #P Geom=AllCheck Guess=TCheck SCRF=Check GenChk UB3LYP/6-31+G(d,p) Fre
 q
 ----------------------------------------------------------------------

 nitrogen_dioxite
 ----------------
 Redundant internal coordinates taken from checkpoint file:
 /home/ospite/Desktop/MMfP/Project3/NO2/Gau-5601.chk
 Charge =  0 Multiplicity = 2

                         Standard orientation:
 ---------------------------------------------------------------------
 Center     Atomic      Atomic             Coordinates (Angstroms)
 Number     Number       Type             X           Y           Z
 ---------------------------------------------------------------------
      1          7           0       -0.000000    0.000000    0.326579
      2          8           0       -0.000000    1.106212   -0.142878
      3          8           0       -0.000000   -1.106212   -0.142878
 ---------------------------------------------------------------------

 SCF Done:  E(UB3LYP) =  -205.083887241     A.U. after    1 cycles

 The electronic state is 2-A1.
 Alpha  occ. eigenvalues --  -19.28464 -19.28463 -14.60224  -1.30005  -1.15444
 Alpha  occ. eigenvalues --   -0.69300  -0.59067  -0.58758  -0.58063  -0.39768
 Alpha  occ. eigenvalues --   -0.39378  -0.30400
 Alpha virt. eigenvalues --   -0.10814   0.02987   0.07448   0.08365   0.08760
 Alpha virt. eigenvalues --    0.15298   0.17357   0.18865   0.20070   0.22610
 Alpha virt. eigenvalues --    0.24416   0.25185   0.31102   0.35500   0.41592

  Beta  occ. eigenvalues --  -19.27587 -19.27586 -14.59180  -1.28152  -1.13327
  Beta  occ. eigenvalues --   -0.66068  -0.56968  -0.56504  -0.54564  -0.38637
  Beta  occ. eigenvalues --   -0.35827
  Beta virt. eigenvalues --   -0.16510  -0.09200   0.03595   0.07560   0.08794
  Beta virt. eigenvalues --    0.08843   0.15813   0.17515   0.18852   0.20653
  Beta virt. eigenvalues --    0.22750   0.25245   0.25279   0.31491   0.35925

 Mulliken atomic charges:
              1
     1  N    0.036960
     2  O   -0.018480
     3  O   -0.018480
 Sum of Mulliken atomic charges =  -0.00000

 Dipole moment (field-independent basis, Debye):
    X=              0.0000    Y=              0.0000    Z=              0.3557  Tot=              0.3557
 Quadrupole moment (field-independent basis, Debye-Ang):
   XX=            -15.0249   YY=            -18.2111   ZZ=            -15.8237
   XY=             -0.0000   XZ=             -0.0000   YZ=              0.0000

  Exact polarizability:   9.824   0.000  28.452  -0.000  -0.000  12.468
 Approx polarizability:  12.547   0.000  63.419   0.000  -0.000  16.606

                     1                      2                      3
                    A1                     A1                     B2
 Frequencies --   748.9285              1396.3816              1709.6168
 Red. masses --    15.1582                15.3247                14.6234
 Frc consts  --     5.0093                17.6056                25.1823
 IR Inten    --     6.4368                 0.0244               428.3443

 - Thermochemistry -
 -------------------
 Temperature   298.150 Kelvin.  Pressure   1.00000 Atm.
 Atom     1 has atomic number  7 and mass  14.00307

 Molecular mass:    45.99290 amu.
 Principal axes and moments of inertia in atomic units:
                           1         2         3
     Eigenvalues --     7.66538 139.79330 147.45868
           X            0.00000   0.00000   1.00000
           Y            1.00000   0.00000  -0.00000
           Z           -0.00000   1.00000  -0.00000
 This molecule is an asymmetric top.
 Rotational symmetry number  2.
 Rotational temperatures (Kelvin)     11.29935     0.61958     0.58738
 Rotational constants (GHZ):         235.44055    12.91007    12.23896
 Zero-point vibrational energy      23057.6 (Joules/Mol)
                                    5.51089 (Kcal/Mol)
 Vibrational temperatures:   1077.54  2009.08  2459.75
          (Kelvin)

 Zero-point correction=                           0.008782 (Hartree/Particle)
 Thermal correction to Energy=                    0.011719
 Thermal correction to Enthalpy=                  0.012663
 Thermal correction to Gibbs Free Energy=        -0.014598
 Sum of electronic and zero-point Energies=           -205.075105
 Sum of electronic and thermal Energies=              -205.072168
 Sum of electronic and thermal Enthalpies=            -205.071224
 Sum of electronic and thermal Free Energies=         -205.098485

                     E (Thermal)             CV                S
                      KCal/Mol        Cal/Mol-Kelvin    Cal/Mol-Kelvin
 Total                    7.354              6.843             57.376
 Electronic               0.000              0.000              1.377
 Translational            0.889              2.981             37.403
 Rotational               0.889              2.981             18.319
 Vibrational              5.576              0.881              0.276

 Optimization completed.
    -- Stationary point found.

 1\1\GINC-MOLMOD\Freq\UB3LYP\6-31+G(d,p)\N1O2(2)\OSPITE\13-Aug-2024\0\\
 #P Geom=AllCheck Guess=TCheck SCRF=Check GenChk UB3LYP/6-31+G(d,p) Fre
 q\\nitrogen_dioxite\\0,2\N,0.0014460982,0.,0.0006123435\O,0.0024006861
 ,0.,1.2023168773\O,0.865086036,0.,-0.8349837047\\Version=EM64L-G09RevA
 .02\State=2-A1\HF=-205.0838872\S2=0.753563\S2-1=0.\S2A=0.750009\RMSD=2
 .929e-10\RMSF=7.846e-08\ZeroPoint=0.0087822\Thermal=0.0117188\Dipole=-
 0.1288605,0.,-0.0545654\DipoleDeriv=0.4769083,0.,-0.6544202,0.,0.15775
 35,0.,-0.6544202,0.,1.7452628,-0.1474255,0.,-0.0299812,0.,-0.0788767,0

 Normal termination of Gaussian 09 at Tue Aug 13 22:25:33 2024.
