 Gaussian 09, Revision A.02,
 Gaussian 09:  EM64L-G09RevA.02 11-Jun-2009

 -------------------------------------------------------------------
 #p b3lyp/6-31++G opt freq symmetry=(follow,pg=C3v) pop=full gfinput
 -------------------------------------------------------------------

 ----------------------------------------------------------
 methyl with imposed symmetry and hf/6-31++G basis function
 ----------------------------------------------------------
 Symbolic Z-matrix:
 Charge =  0 Multiplicity = 2

 SCF Done:  E(UB3LYP) =  -39.8355073720     A.U. after    8 cycles
 SCF Done:  E(UB3LYP) =  -39.8355931488     A.U. after    7 cycles
 Optimization completed.
    -- Stationary point found.
 Normal termination of Gaussian 09 at Sat Aug 17 17:53:29 2024.

 -------------------------------------------------------------------
 #P Geom=AllCheck Guess=TCheck SCRF=Check GenChk UB3LYP/6-31++G Freq
 -------------------------------------------------------------------

 methyl with imposed symmetry and hf/6-31++G basis function
 ----------------------------------------------------------
 Redundant internal coordinates taken from checkpoint file:
 /home/ospite/Desktop/MMfP/Project6/CH3/g09/DFT/Gau-8623.chk
 Charge =  0 Multiplicity = 2

                         Standard orientation:
 ---------------------------------------------------------------------
 Center     Atomic      Atomic             Coordinates (Angstroms)
 Number     Number       Type             X           Y           Z
 ---------------------------------------------------------------------
      1          6           0        0.000000    0.000001    0.000000
      2          1           0       -0.000001   -1.083061   -0.000000
      3          1           0        0.937962    0.541528    0.000000
      4          1           0       -0.937961    0.541529   -0.000000
 ---------------------------------------------------------------------

 SCF Done:  E(UB3LYP) =  -39.8355931488     A.U. after    1 cycles

 The electronic state is 2-A".
 Alpha  occ. eigenvalues --  -10.19822  -0.69340  -0.42784  -0.42783  -0.23526
 Alpha virt. eigenvalues --   -0.00362   0.03739   0.03739   0.07408   0.10970
 Alpha virt. eigenvalues --    0.10970   0.13943   0.19284   0.21756   0.21756
 Alpha virt. eigenvalues --    0.64869   0.71550   0.71550   0.99776   1.00892

  Beta  occ. eigenvalues --  -10.18417  -0.65203  -0.41784  -0.41784
  Beta virt. eigenvalues --   -0.07774  -0.00136   0.03682   0.03683   0.09844
  Beta virt. eigenvalues --    0.10919   0.10919   0.14675   0.21087   0.22247
  Beta virt. eigenvalues --    0.22247   0.71646   0.72595   0.72595   1.00078

 Mulliken atomic charges:
              1
     1  C   -0.521433
     2  H    0.173819
     3  H    0.173807
     4  H    0.173807
 Sum of Mulliken atomic charges =  -0.00000

 Dipole moment (field-independent basis, Debye):
    X=             -0.0000    Y=             -0.0000    Z=              0.0000  Tot=              0.0000
 Quadrupole moment (field-independent basis, Debye-Ang):
   XX=             -7.3263   YY=             -7.3263   ZZ=             -9.3910
   XY=             -0.0000   XZ=             -0.0000   YZ=              0.0000

  Exact polarizability:  12.754   0.000  12.754   0.000  -0.000  11.103
 Approx polarizability:  14.486  -0.000  14.485   0.000   0.000  10.374

                     1                      2                      3
                    A"                     A'                     A'
 Frequencies --   589.2613              1430.3460              1430.4098
 Red. masses --     1.2356                 1.1033                 1.1033
 Frc consts  --     0.2528                 1.3299                 1.3300
 IR Inten    --   131.4535                 7.2646                 7.2673

                     4                      5                      6
                    A'                     A'                     A'
 Frequencies --  3130.3404              3317.9291              3317.9768
 Red. masses --     1.0078                 1.1171                 1.1171
 Frc consts  --     5.8186                 7.2456                 7.2457
 IR Inten    --     0.0000                 8.9901                 8.9897

 - Thermochemistry -
 -------------------
 Temperature   298.150 Kelvin.  Pressure   1.00000 Atm.
 Atom     1 has atomic number  6 and mass  12.00000

 Molecular mass:    15.02348 amu.
 Principal axes and moments of inertia in atomic units:
                           1         2         3
     Eigenvalues --     6.33255   6.33261  12.66517
           X            1.00000   0.00000   0.00000
           Y           -0.00000   1.00000   0.00000
           Z            0.00000  -0.00000   1.00000
 This molecule is an asymmetric top.
 Rotational symmetry number  1.
 Rotational temperatures (Kelvin)     13.67755    13.67742     6.83874
 Rotational constants (GHZ):         284.99434   284.99146   142.49645
 Zero-point vibrational energy      79050.8 (Joules/Mol)
                                   18.89360 (Kcal/Mol)
 Warning -- explicit consideration of   1 degrees of freedom as
           vibrations may cause significant error
 Vibrational temperatures:    847.81  2057.95  2058.04  4503.86  4773.75
          (Kelvin)           4773.82

 Zero-point correction=                           0.030109 (Hartree/Particle)
 Thermal correction to Energy=                    0.033121
 Thermal correction to Enthalpy=                  0.034065
 Thermal correction to Gibbs Free Energy=         0.010337
 Sum of electronic and zero-point Energies=            -39.805484
 Sum of electronic and thermal Energies=               -39.802473
 Sum of electronic and thermal Enthalpies=             -39.801528
 Sum of electronic and thermal Free Energies=          -39.825256

                     E (Thermal)             CV                S
                      KCal/Mol        Cal/Mol-Kelvin    Cal/Mol-Kelvin
 Total                   20.783              7.207             49.939
 Electronic               0.000              0.000              1.377
 Translational            0.889              2.981             34.068
 Rotational               0.889              2.981             13.993
 Vibrational             19.006              1.246              0.500
 Vibration     1          0.947              1.055              0.468

 Optimization completed.
    -- Stationary point found.
 Normal termination of Gaussian 09 at Sat Aug 17 17:53:45 2024.
