 Gaussian 09, Revision A.02,
 Gaussian 09:  EM64L-G09RevA.02 11-Jun-2009

 ------------------------------------------------------------------
 #p b3lyp/6-31+G opt freq symmetry=(follow,pg=C3v) pop=full gfinput
 ------------------------------------------------------------------

 ---------------------------------------------------------
 methyl with imposed symmetry and hf/6-31+G basis function
 ---------------------------------------------------------
 Symbolic Z-matrix:
 Charge =  0 Multiplicity = 2

 SCF Done:  E(UB3LYP) =  -39.8354421238     A.U. after    8 cycles
 SCF Done:  E(UB3LYP) =  -39.8355281304     A.U. after    7 cycles
 Optimization completed.
    -- Stationary point found.
 Normal termination of Gaussian 09 at Sat Aug 17 17:54:18 2024.

 ------------------------------------------------------------------
 #P Geom=AllCheck Guess=TCheck SCRF=Check GenChk UB3LYP/6-31+G Freq
 ------------------------------------------------------------------

 methyl with imposed symmetry and hf/6-31+G basis function
 ---------------------------------------------------------
 Redundant internal coordinates taken from checkpoint file:
 /home/ospite/Desktop/MMfP/Project6/CH3/g09/DFT/Gau-8655.chk
 Charge =  0 Multiplicity = 2

                         Standard orientation:
 ---------------------------------------------------------------------
 Center     Atomic      Atomic             Coordinates (Angstroms)
 Number     Number       Type             X           Y           Z
 ---------------------------------------------------------------------
      1          6           0       -0.000000    0.000001    0.000000
      2          1           0       -0.000001   -1.083049   -0.000000
      3          1           0        0.937951    0.541522    0.000000
      4          1           0       -0.937951    0.541523   -0.000000
 ---------------------------------------------------------------------

 SCF Done:  E(UB3LYP) =  -39.8355281304     A.U. after    1 cycles

 The electronic state is 2-A".
 Alpha  occ. eigenvalues --  -10.19818  -0.69341  -0.42785  -0.42784  -0.23525
 Alpha virt. eigenvalues --    0.01980   0.05874   0.05874   0.07408   0.19033
 Alpha virt. eigenvalues --    0.19330   0.19330   0.64416   0.64416   0.64870
 Alpha virt. eigenvalues --    0.85866   1.00011   1.02145   1.02146
  Beta  occ. eigenvalues --  -10.18413  -0.65203  -0.41785  -0.41785
  Beta virt. eigenvalues --   -0.07776   0.02568   0.05870   0.05870   0.09844
  Beta virt. eigenvalues --    0.19761   0.19761   0.20749   0.65489   0.65489
  Beta virt. eigenvalues --    0.71645   0.88188   1.01347   1.02175   1.02175

 Mulliken atomic charges:
              1
     1  C   -0.531097
     2  H    0.177036
     3  H    0.177030
     4  H    0.177030
 Sum of Mulliken atomic charges =   0.00000

 Dipole moment (field-independent basis, Debye):
    X=             -0.0000    Y=             -0.0000    Z=             -0.0000  Tot=              0.0000
 Quadrupole moment (field-independent basis, Debye-Ang):
   XX=             -7.3268   YY=             -7.3268   ZZ=             -9.3951
   XY=             -0.0000   XZ=              0.0000   YZ=             -0.0000

  Exact polarizability:  12.276   0.000  12.276   0.000   0.000  10.807
 Approx polarizability:  13.987   0.000  13.986   0.000  -0.000  10.051

                     1                      2                      3
                    A"                     A'                     A'
 Frequencies --   587.8195              1430.3543              1430.4184
 Red. masses --     1.2356                 1.1033                 1.1033
 Frc consts  --     0.2515                 1.3299                 1.3300
 IR Inten    --   130.0432                 7.4195                 7.4221

                     4                      5                      6
                    A'                     A'                     A'
 Frequencies --  3131.6068              3319.6166              3319.6651
 Red. masses --     1.0078                 1.1171                 1.1171
 Frc consts  --     5.8233                 7.2531                 7.2533
 IR Inten    --     0.0000                 7.4970                 7.4966

 - Thermochemistry -
 -------------------
 Temperature   298.150 Kelvin.  Pressure   1.00000 Atm.
 Atom     1 has atomic number  6 and mass  12.00000

 Molecular mass:    15.02348 amu.
 Principal axes and moments of inertia in atomic units:
                           1         2         3
     Eigenvalues --     6.33241   6.33247  12.66488
           X            1.00000   0.00000   0.00000
           Y           -0.00000   1.00000   0.00000
           Z            0.00000  -0.00000   1.00000
 This molecule is an asymmetric top.
 Rotational symmetry number  1.
 Rotational temperatures (Kelvin)     13.67786    13.67772     6.83890
 Rotational constants (GHZ):         285.00072   284.99785   142.49964
 Zero-point vibrational energy      79070.1 (Joules/Mol)
                                   18.89820 (Kcal/Mol)
 Warning -- explicit consideration of   1 degrees of freedom as
           vibrations may cause significant error
 Vibrational temperatures:    845.74  2057.96  2058.05  4505.68  4776.18
          (Kelvin)           4776.25

 Zero-point correction=                           0.030116 (Hartree/Particle)
 Thermal correction to Energy=                    0.033129
 Thermal correction to Enthalpy=                  0.034073
 Thermal correction to Gibbs Free Energy=         0.010344
 Sum of electronic and zero-point Energies=            -39.805412
 Sum of electronic and thermal Energies=               -39.802399
 Sum of electronic and thermal Enthalpies=             -39.801455
 Sum of electronic and thermal Free Energies=          -39.825184

                     E (Thermal)             CV                S
                      KCal/Mol        Cal/Mol-Kelvin    Cal/Mol-Kelvin
 Total                   20.789              7.210             49.941
 Electronic               0.000              0.000              1.377
 Translational            0.889              2.981             34.068
 Rotational               0.889              2.981             13.993
 Vibrational             19.011              1.249              0.503
 Vibration     1          0.945              1.058              0.471

 Optimization completed.
    -- Stationary point found.
 Normal termination of Gaussian 09 at Sat Aug 17 17:54:29 2024.
