 Gaussian 09, Revision A.02,
 Gaussian 09:  EM64L-G09RevA.02 11-Jun-2009

 ------------------------------------------------------------------
 #p b3lyp/STO-3G opt freq symmetry=(follow,pg=C3v) pop=full gfinput
 ------------------------------------------------------------------

 ---------------------------------------------------------
 methyl with imposed symmetry and hf/STO-3G basis function
 ---------------------------------------------------------
 Symbolic Z-matrix:
 Charge =  0 Multiplicity = 2

 SCF Done:  E(UB3LYP) =  -39.3442061444     A.U. after   10 cycles
 SCF Done:  E(UB3LYP) =  -39.3442115979     A.U. after    6 cycles
 Optimization completed.
    -- Stationary point found.
 Normal termination of Gaussian 09 at Sat Aug 17 17:56:31 2024.

 ------------------------------------------------------------------
 #P Geom=AllCheck Guess=TCheck SCRF=Check GenChk UB3LYP/STO-3G Freq
 ------------------------------------------------------------------

 methyl with imposed symmetry and hf/STO-3G basis function
 ---------------------------------------------------------
 Redundant internal coordinates taken from checkpoint file:
 /home/ospite/Desktop/MMfP/Project6/CH3/g09/DFT/Gau-8705.chk
 Charge =  0 Multiplicity = 2

                         Standard orientation:
 ---------------------------------------------------------------------
 Center     Atomic      Atomic             Coordinates (Angstroms)
 Number     Number       Type             X           Y           Z
 ---------------------------------------------------------------------
      1          6           0        0.000000    0.000004   -0.000000
      2          1           0       -0.000000   -1.091932    0.000000
      3          1           0        0.945655    0.545954    0.000000
      4          1           0       -0.945655    0.545954   -0.000000
 ---------------------------------------------------------------------

 SCF Done:  E(UB3LYP) =  -39.3442115979     A.U. after    1 cycles

 The electronic state is 2-A".
 Alpha  occ. eigenvalues --   -9.96978  -0.64025  -0.37591  -0.37590  -0.16235
 Alpha virt. eigenvalues --    0.39005   0.49676   0.49677
  Beta  occ. eigenvalues --   -9.95377  -0.59337  -0.36530  -0.36529
  Beta virt. eigenvalues --    0.06610   0.42656   0.51257   0.51259

 Mulliken atomic charges:
              1
     1  C   -0.210122
     2  H    0.070040
     3  H    0.070041
     4  H    0.070041
 Sum of Mulliken atomic charges =  -0.00000

 Dipole moment (field-independent basis, Debye):
    X=              0.0000    Y=             -0.0000    Z=              0.0000  Tot=              0.0000
 Quadrupole moment (field-independent basis, Debye-Ang):
   XX=             -6.6808   YY=             -6.6809   ZZ=             -7.5489
   XY=             -0.0000   XZ=             -0.0000   YZ=              0.0000

  Exact polarizability:   5.790  -0.000   5.790   0.000  -0.000   2.024
 Approx polarizability:   6.942  -0.000   6.942   0.000   0.000   2.226

 ******    1 imaginary frequencies (negative Signs) ******

                     1                      2                      3
                    A"                     A'                     A'
 Frequencies --  -159.3452              1545.1539              1545.2051
 Red. masses --     1.2356                 1.0992                 1.0993
 Frc consts  --     0.0185                 1.5463                 1.5465
 IR Inten    --    39.0926                 0.0078                 0.0079

                     4                      5                      6
                    A'                     A'                     A'
 Frequencies --  3325.4767              3599.2301              3599.3555
 Red. masses --     1.0078                 1.1212                 1.1213
 Frc consts  --     6.5666                 8.5578                 8.5589
 IR Inten    --     0.0000                 0.0257                 0.0256

 - Thermochemistry -
 -------------------
 Temperature   298.150 Kelvin.  Pressure   1.00000 Atm.
 Atom     1 has atomic number  6 and mass  12.00000

 Molecular mass:    15.02348 amu.
 Principal axes and moments of inertia in atomic units:
                           1         2         3
     Eigenvalues --     6.43664   6.43692  12.87356
           X            1.00000   0.00000   0.00000
           Y           -0.00000   1.00000   0.00000
           Z            0.00000  -0.00000   1.00000
 This molecule is an asymmetric top.
 Rotational symmetry number  1.
 Rotational temperatures (Kelvin)     13.45638    13.45579     6.72804
 Rotational constants (GHZ):         280.38580   280.37342   140.18981
    1 imaginary frequencies ignored.
 Zero-point vibrational energy      81432.3 (Joules/Mol)
                                   19.46279 (Kcal/Mol)
 Vibrational temperatures:   2223.13  2223.20  4784.61  5178.48  5178.66
          (Kelvin)

 Zero-point correction=                           0.031016 (Hartree/Particle)
 Thermal correction to Energy=                    0.033857
 Thermal correction to Enthalpy=                  0.034801
 Thermal correction to Gibbs Free Energy=         0.011279
 Sum of electronic and zero-point Energies=            -39.313196
 Sum of electronic and thermal Energies=               -39.310355
 Sum of electronic and thermal Enthalpies=             -39.309411
 Sum of electronic and thermal Free Energies=          -39.332933

                     E (Thermal)             CV                S
                      KCal/Mol        Cal/Mol-Kelvin    Cal/Mol-Kelvin
 Total                   21.245              6.090             49.507
 Electronic               0.000              0.000              1.377
 Translational            0.889              2.981             34.068
 Rotational               0.889              2.981             14.042
 Vibrational             19.468              0.128              0.019

 Optimization completed.
    -- Stationary point found.
 Normal termination of Gaussian 09 at Sat Aug 17 17:56:36 2024.
