 Gaussian 09, Revision D.01,
 Gaussian 09:  EM64L-G09RevD.01 24-Apr-2013

 ----------------------------------------------------------------------
 #p B3LYP/6-31g(d,p) opt=Z-Matrix nosym temperature=300 pop=full gfinpu
 t
 ----------------------------------------------------------------------

 ---------------------------
 nh3+h to nh2+h2 pulling hh7
 ---------------------------
 Symbolic Z-matrix:
 Charge =  0 Multiplicity = 2

 SCF Done:  E(UB3LYP) =  -57.0489699402     A.U. after   12 cycles
 SCF Done:  E(UB3LYP) =  -57.0489806220     A.U. after    6 cycles
 Optimization completed.
    -- Stationary point found.
 SCF Done:  E(UB3LYP) =  -57.0489547355     A.U. after    9 cycles
 Optimization completed.
 SCF Done:  E(UB3LYP) =  -57.0488980810     A.U. after    9 cycles
 SCF Done:  E(UB3LYP) =  -57.0488984202     A.U. after    6 cycles
 SCF Done:  E(UB3LYP) =  -57.0487965299     A.U. after   10 cycles
 SCF Done:  E(UB3LYP) =  -57.0486298516     A.U. after   10 cycles
 SCF Done:  E(UB3LYP) =  -57.0486304280     A.U. after    6 cycles
 SCF Done:  E(UB3LYP) =  -57.0483750305     A.U. after   10 cycles
 SCF Done:  E(UB3LYP) =  -57.0483753808     A.U. after    6 cycles
    -- Stationary point found.
 SCF Done:  E(UB3LYP) =  -56.9528990925     A.U. after   12 cycles
 SCF Done:  E(UB3LYP) =  -56.9528991807     A.U. after   14 cycles
 SCF Done:  E(UB3LYP) =  -56.9529163645     A.U. after   12 cycles
 SCF Done:  E(UB3LYP) =  -56.9529192069     A.U. after   13 cycles
 SCF Done:  E(UB3LYP) =  -56.9529051606     A.U. after   14 cycles
 SCF Done:  E(UB3LYP) =  -56.9529195765     A.U. after    9 cycles
 SCF Done:  E(UB3LYP) =  -56.9529199873     A.U. after    8 cycles
 SCF Done:  E(UB3LYP) =  -56.9529202241     A.U. after   12 cycles
 SCF Done:  E(UB3LYP) =  -56.9529203106     A.U. after    8 cycles
 SCF Done:  E(UB3LYP) =  -56.9529203126     A.U. after    8 cycles
 Optimization completed.
    -- Stationary point found.

                         Z-Matrix orientation:
 ---------------------------------------------------------------------
 Center     Atomic      Atomic             Coordinates (Angstroms)
 Number     Number       Type             X           Y           Z
 ---------------------------------------------------------------------
      1          7           0        0.000000    0.000000    0.000000
      2          1           0        0.000000    0.000000    1.032885
      3          1           0        2.343671    0.000000   -1.803677
      4          1           0       -1.009697    0.018652   -0.216856
      5         -1           0        2.041816    0.975792   -1.816931
      6          1           0        2.714348    0.001226   -2.084926
 ---------------------------------------------------------------------

 Alpha  occ. eigenvalues --  -14.36501  -0.85444  -0.47695  -0.46916  -0.32469
 Alpha  occ. eigenvalues --   -0.31280
 Alpha virt. eigenvalues --    0.07472   0.14806   0.20755   0.48542   0.65014
 Alpha virt. eigenvalues --    0.67444   0.76978   0.81370   0.84808   0.98705
 Alpha virt. eigenvalues --    1.40037   1.45209   1.51481   1.54627   1.73114

  Beta  occ. eigenvalues --  -14.34590  -0.80072  -0.47697  -0.45492  -0.29962
  Beta virt. eigenvalues --   -0.10225   0.08484   0.15454   0.20827   0.48675
  Beta virt. eigenvalues --    0.67706   0.73858   0.78154   0.83240   0.85745
  Beta virt. eigenvalues --    1.01587   1.40562   1.49881   1.52566   1.59823

 Mulliken charges and spin densities:
               1          2
     1  N   -0.472924   1.068720
     2  H    0.241042  -0.033599
     3  H    0.031673  -0.001600
     4  H    0.241004  -0.033591
     5  H   -0.040795   0.000070
 Sum of Mulliken charges =   0.00000   1.00000

 Dipole moment (field-independent basis, Debye):
    X=             -1.6649    Y=              0.0280    Z=              1.3401  Tot=              2.1374
 Quadrupole moment (field-independent basis, Debye-Ang):
   XX=             -8.1568   YY=             -8.5583   ZZ=             -7.7986
   XY=             -0.0123   XZ=              0.7870   YZ=             -0.0108

 Normal termination of Gaussian 09 at Sat Sep 14 01:05:58 2024.
