 Gaussian 09, Revision D.01,
 Gaussian 09:  EM64L-G09RevD.01 24-Apr-2013

 ----------------------------------------------------------------------
 #p wb97xd/6-31g(d,p) opt=Z-Matrix nosym temperature=300 pop=full gfinp
 ut
 ----------------------------------------------------------------------

 ---------------------------
 nh3+h to nh2+h2 pulling hh6
 ---------------------------
 Symbolic Z-matrix:
 Charge =  0 Multiplicity = 2

 SCF Done:  E(UwB97XD) =  -57.0384184675     A.U. after   17 cycles
 SCF Done:  E(UwB97XD) =  -57.0385678425     A.U. after   13 cycles
 SCF Done:  E(UwB97XD) =  -57.0385828054     A.U. after    9 cycles
 SCF Done:  E(UwB97XD) =  -57.0385833150     A.U. after    8 cycles
 Optimization completed.
    -- Stationary point found.
 SCF Done:  E(UwB97XD) =  -57.0383134699     A.U. after   13 cycles
 Optimization completed.
 SCF Done:  E(UwB97XD) =  -57.0379741670     A.U. after   12 cycles
 SCF Done:  E(UwB97XD) =  -57.0379744426     A.U. after    8 cycles
 SCF Done:  E(UwB97XD) =  -57.0375421609     A.U. after   14 cycles
 SCF Done:  E(UwB97XD) =  -57.0370108648     A.U. after   15 cycles
 SCF Done:  E(UwB97XD) =  -57.0370119085     A.U. after    9 cycles
 SCF Done:  E(UwB97XD) =  -57.0330098536     A.U. after   11 cycles
 SCF Done:  E(UwB97XD) =  -57.0330217835     A.U. after   15 cycles
 SCF Done:  E(UwB97XD) =  -57.0330333199     A.U. after   17 cycles
 SCF Done:  E(UwB97XD) =  -57.0330368958     A.U. after   17 cycles
 SCF Done:  E(UwB97XD) =  -57.0330376488     A.U. after   10 cycles
 SCF Done:  E(UwB97XD) =  -57.0330386191     A.U. after   10 cycles
 SCF Done:  E(UwB97XD) =  -57.0330389504     A.U. after   10 cycles
    -- Stationary point found.
 SCF Done:  E(UwB97XD) =  -57.0174552945     A.U. after   17 cycles
 SCF Done:  E(UwB97XD) =  -57.0175205362     A.U. after   15 cycles
 SCF Done:  E(UwB97XD) =  -57.0175221978     A.U. after   12 cycles
 Optimization completed.
    -- Stationary point found.

                         Z-Matrix orientation:
 ---------------------------------------------------------------------
 Center     Atomic      Atomic             Coordinates (Angstroms)
 Number     Number       Type             X           Y           Z
 ---------------------------------------------------------------------
      1          7           0        0.000000    0.000000    0.000000
      2          1           0        0.000000    0.000000    1.029467
      3          1           0        2.498094    0.000000   -0.381261
      4          1           0       -0.161415    0.992123   -0.222353
      5         -1           0        2.644597    0.238970    0.578650
      6          1           0        3.056252    0.239009   -0.312140
 ---------------------------------------------------------------------

 Alpha  occ. eigenvalues --  -14.47946  -0.95388  -0.55684  -0.53957  -0.41099
 Alpha  occ. eigenvalues --   -0.39487
 Alpha virt. eigenvalues --    0.16374   0.23762   0.25202   0.61745   0.76549
 Alpha virt. eigenvalues --    0.77286   0.84609   0.92591   0.94644   1.10186
 Alpha virt. eigenvalues --    1.34245   1.53501   1.54832   1.64866   1.77646

  Beta  occ. eigenvalues --  -14.46302  -0.89557  -0.53970  -0.53704  -0.38277
  Beta virt. eigenvalues --   -0.02060   0.17494   0.24603   0.25802   0.62844
  Beta virt. eigenvalues --    0.76700   0.80818   0.89011   0.95047   0.95857
  Beta virt. eigenvalues --    1.11980   1.34607   1.56512   1.58509   1.70214

 Mulliken charges and spin densities:
               1          2
     1  N   -0.509310   1.059583
     2  H    0.258607  -0.033091
     3  H    0.010690  -0.004958
     4  H    0.258534  -0.033245
     5  H   -0.018520   0.011710
 Sum of Mulliken charges =   0.00000   1.00000

 Dipole moment (field-independent basis, Debye):
    X=             -0.3779    Y=              1.5554    Z=              1.2865  Tot=              2.0536
 Quadrupole moment (field-independent basis, Debye-Ang):
   XX=             -8.8366   YY=             -8.0262   ZZ=             -7.7804
   XY=             -0.0391   XZ=              0.1588   YZ=             -0.5874

 Normal termination of Gaussian 09 at Sun Sep 15 21:22:37 2024.
