 Gaussian 09, Revision D.01,
 Gaussian 09:  EM64L-G09RevD.01 24-Apr-2013

 ----------------------------------------------------------------------
 #p wb97xd/6-31g(d,p) opt=Z-Matrix nosym temperature=300 pop=full gfinp
 ut
 ----------------------------------------------------------------------

 ---------------------------
 nh3+h to nh2+h2 pulling hh7
 ---------------------------
 Symbolic Z-matrix:
 Charge =  0 Multiplicity = 2

 SCF Done:  E(UwB97XD) =  -57.0301469190     A.U. after   12 cycles
 SCF Done:  E(UwB97XD) =  -57.0301785006     A.U. after    7 cycles
 Optimization completed.
    -- Stationary point found.
 SCF Done:  E(UwB97XD) =  -57.0299438357     A.U. after   10 cycles
 Optimization completed.
 SCF Done:  E(UwB97XD) =  -57.0296368192     A.U. after   10 cycles
 SCF Done:  E(UwB97XD) =  -57.0296373757     A.U. after    7 cycles
 SCF Done:  E(UwB97XD) =  -57.0292401984     A.U. after   11 cycles
 SCF Done:  E(UwB97XD) =  -57.0287334627     A.U. after   12 cycles
 SCF Done:  E(UwB97XD) =  -57.0287339242     A.U. after    7 cycles
 SCF Done:  E(UwB97XD) =  -57.0280946198     A.U. after   12 cycles
 SCF Done:  E(UwB97XD) =  -57.0280949099     A.U. after    7 cycles
                       ! Non-Optimized Parameters !
 SCF Done:  E(UwB97XD) =  -57.0282633441     A.U. after   20 cycles
 SCF Done:  E(UwB97XD) =  -57.0287572385     A.U. after   12 cycles
 SCF Done:  E(UwB97XD) =  -57.0287575274     A.U. after   10 cycles
 SCF Done:  E(UwB97XD) =  -57.0287578950     A.U. after   10 cycles
 SCF Done:  E(UwB97XD) =  -57.0287575931     A.U. after   11 cycles
 SCF Done:  E(UwB97XD) =  -57.0287579767     A.U. after    5 cycles
 SCF Done:  E(UwB97XD) =  -57.0287582353     A.U. after   10 cycles
 SCF Done:  E(UwB97XD) =  -57.0287584064     A.U. after   10 cycles
 SCF Done:  E(UwB97XD) =  -57.0287585007     A.U. after   10 cycles
 SCF Done:  E(UwB97XD) =  -57.0287585338     A.U. after   10 cycles
 Optimization completed.
    -- Stationary point found.

                         Z-Matrix orientation:
 ---------------------------------------------------------------------
 Center     Atomic      Atomic             Coordinates (Angstroms)
 Number     Number       Type             X           Y           Z
 ---------------------------------------------------------------------
      1          7           0        0.000000    0.000000    0.000000
      2          1           0        0.000000    0.000000    1.029350
      3          1           0        2.445977    0.000000   -0.357518
      4          1           0       -0.178106   -0.988852   -0.223628
      5         -1           0        2.073411    0.024163   -1.308345
      6          1           0        3.048742   -0.267908   -0.270773
 ---------------------------------------------------------------------

 Alpha  occ. eigenvalues --  -14.47987  -0.95428  -0.55737  -0.52735  -0.41126
 Alpha  occ. eigenvalues --   -0.39460
 Alpha virt. eigenvalues --    0.16303   0.23717   0.23797   0.63446   0.76511
 Alpha virt. eigenvalues --    0.77202   0.84709   0.92673   0.94615   1.09812
 Alpha virt. eigenvalues --    1.29419   1.53444   1.54783   1.64822   1.77234

  Beta  occ. eigenvalues --  -14.46345  -0.89600  -0.54021  -0.52407  -0.38303
  Beta virt. eigenvalues --   -0.02132   0.17419   0.24422   0.24597   0.64647
  Beta virt. eigenvalues --    0.76659   0.80774   0.88982   0.95123   0.95826
  Beta virt. eigenvalues --    1.11519   1.29848   1.56464   1.58451   1.70146

 Mulliken charges and spin densities:
               1          2
     1  N   -0.509679   1.058207
     2  H    0.259106  -0.033032
     3  H    0.012151  -0.006493
     4  H    0.259035  -0.033191
     5  H   -0.020613   0.014510
 Sum of Mulliken charges =  -0.00000   1.00000

 Dipole moment (field-independent basis, Debye):
    X=             -0.4205    Y=             -1.5470    Z=              1.2836  Tot=              2.0537
 Quadrupole moment (field-independent basis, Debye-Ang):
   XX=             -8.9380   YY=             -8.0988   ZZ=             -7.8532
   XY=              0.0439   XZ=              0.1776   YZ=              0.5818

 Normal termination of Gaussian 09 at Sat Sep 14 02:06:25 2024.
