 Gaussian 09, Revision A.02,
 Gaussian 09:  EM64L-G09RevA.02 11-Jun-2009

 ----------------------------------------------------------------
 #p hf/cc-pVDZ opt freq symmetry=(follow,pg=C3v) pop=full gfinput
 ----------------------------------------------------------------

 --------------------------------------------------
 methyl with imposed symmetry and cc-pVDZ basis set
 --------------------------------------------------
 Symbolic Z-matrix:
 Charge =  0 Multiplicity = 2

 SCF Done:  E(UHF) =  -39.5636539306     A.U. after   11 cycles
 SCF Done:  E(UHF) =  -39.5638147789     A.U. after    9 cycles
 SCF Done:  E(UHF) =  -39.5638172447     A.U. after    8 cycles
 Optimization completed.
    -- Stationary point found.
 Normal termination of Gaussian 09 at Sun Aug 18 00:15:23 2024.

 ----------------------------------------------------------------
 #P Geom=AllCheck Guess=TCheck SCRF=Check GenChk UHF/CC-pVDZ Freq
 ----------------------------------------------------------------

 methyl with imposed symmetry and cc-pVDZ basis set
 --------------------------------------------------
 Redundant internal coordinates taken from checkpoint file:
 /home/ospite/Desktop/MMfP/Project6/CH3/g09/HF/Gau-18602.chk
 Charge =  0 Multiplicity = 2

                         Standard orientation:
 ---------------------------------------------------------------------
 Center     Atomic      Atomic             Coordinates (Angstroms)
 Number     Number       Type             X           Y           Z
 ---------------------------------------------------------------------
      1          6           0        0.000000    0.000000    0.000000
      2          1           0        0.000000    1.081205    0.000000
      3          1           0        0.936351   -0.540603   -0.000000
      4          1           0       -0.936351   -0.540603   -0.000000
 ---------------------------------------------------------------------

 SCF Done:  E(UHF) =  -39.5638172447     A.U. after    1 cycles

 The electronic state is 2-A2".
 Alpha  occ. eigenvalues --  -11.23974  -0.94524  -0.57648  -0.57648  -0.38304
 Alpha virt. eigenvalues --    0.19411   0.26826   0.26826   0.61462   0.61462
 Alpha virt. eigenvalues --    0.66860   0.69877   0.89738   0.89738   1.05445
 Alpha virt. eigenvalues --    1.18538   1.18538   1.62346   1.72293   1.72293

  Beta  occ. eigenvalues --  -11.21536  -0.85263  -0.56125  -0.56125
  Beta virt. eigenvalues --    0.14309   0.21001   0.27531   0.27531   0.61871
  Beta virt. eigenvalues --    0.61871   0.75027   0.81521   0.91096   0.91096
  Beta virt. eigenvalues --    1.09008   1.25136   1.25136   1.61898   1.72751

 Mulliken atomic charges:
              1
     1  C   -0.179472
     2  H    0.059824
     3  H    0.059824
     4  H    0.059824
 Sum of Mulliken atomic charges =  -0.00000

 Dipole moment (field-independent basis, Debye):
    X=             -0.0000    Y=             -0.0000    Z=             -0.0000  Tot=              0.0000
 Quadrupole moment (field-independent basis, Debye-Ang):
   XX=             -7.1421   YY=             -7.1421   ZZ=             -8.7568
   XY=             -0.0000   XZ=             -0.0000   YZ=             -0.0000

  Exact polarizability:  12.066  -0.000  12.066   0.000  -0.000   6.616
 Approx polarizability:   9.511  -0.000   9.511   0.000  -0.000   5.724

                     1                      2                      3
                    A2"                    E'                     E'
 Frequencies --   331.3667              1493.1114              1493.1114
 Red. masses --     1.2356                 1.1016                 1.1016
 Frc consts  --     0.0799                 1.4470                 1.4470
 IR Inten    --    68.4492                 1.9077                 1.9077
 Raman Activ --     0.0000                 2.7589                 2.7589

                     4                      5                      6
                    A1'                    E'                     E'
 Frequencies --  3241.1873              3434.1773              3434.1773
 Red. masses --     1.0078                 1.1188                 1.1188
 Frc consts  --     6.2380                 7.7744                 7.7744
 IR Inten    --     0.0000                 6.0576                 6.0576
 Raman Activ --   143.3254                42.3195                42.3195

 - Thermochemistry -
 -------------------
 Temperature   298.150 Kelvin.  Pressure   1.00000 Atm.
 Atom     1 has atomic number  6 and mass  12.00000

 Molecular mass:    15.02348 amu.
 Principal axes and moments of inertia in atomic units:
                           1         2         3
     Eigenvalues --     6.31088   6.31088  12.62177
           X            0.77485   0.63214   0.00000
           Y           -0.63214   0.77485   0.00000
           Z           -0.00000   0.00000   1.00000
 This molecule is an oblate symmetric top.
 Rotational symmetry number  6.
 Rotational temperatures (Kelvin)     13.72451    13.72451     6.86226
 Rotational constants (GHZ):         285.97278   285.97278   142.98639
 Zero-point vibrational energy      80312.1 (Joules/Mol)
                                   19.19505 (Kcal/Mol)
 Warning -- explicit consideration of   1 degrees of freedom as
           vibrations may cause significant error
 Vibrational temperatures:    476.76  2148.25  2148.25  4663.34  4941.01
          (Kelvin)           4941.01

 Zero-point correction=                           0.030589 (Hartree/Particle)
 Thermal correction to Energy=                    0.033814
 Thermal correction to Enthalpy=                  0.034759
 Thermal correction to Gibbs Free Energy=         0.012358
 Sum of electronic and zero-point Energies=            -39.533228
 Sum of electronic and thermal Energies=               -39.530003
 Sum of electronic and thermal Enthalpies=             -39.529059
 Sum of electronic and thermal Free Energies=          -39.551459

                     E (Thermal)             CV                S
                      KCal/Mol        Cal/Mol-Kelvin    Cal/Mol-Kelvin
 Total                   21.219              7.728             47.145
 Electronic               0.000              0.000              1.377
 Translational            0.889              2.981             34.068
 Rotational               0.889              2.981             10.422
 Vibrational             19.441              1.766              1.278
 Vibration     1          0.714              1.613              1.253

 Optimization completed.
    -- Stationary point found.
 Normal termination of Gaussian 09 at Sun Aug 18 00:15:26 2024.
