 Gaussian 09, Revision A.02,
 Gaussian 09:  EM64L-G09RevA.02 11-Jun-2009

 ----------------------------------------------------------------
 #p hf/cc-pVTZ opt freq symmetry=(follow,pg=C3v) pop=full gfinput
 ----------------------------------------------------------------

 --------------------------------------------------
 methyl with imposed symmetry and cc-pVTZ basis set
 --------------------------------------------------
 Symbolic Z-matrix:
 Charge =  0 Multiplicity = 2

 SCF Done:  E(UHF) =  -39.5768689436     A.U. after   11 cycles
 SCF Done:  E(UHF) =  -39.5776015204     A.U. after    9 cycles
 SCF Done:  E(UHF) =  -39.5776062797     A.U. after    8 cycles
 Optimization completed.
    -- Stationary point found.
 Normal termination of Gaussian 09 at Sun Aug 18 00:16:41 2024.

 ----------------------------------------------------------------
 #P Geom=AllCheck Guess=TCheck SCRF=Check GenChk UHF/CC-pVTZ Freq
 ----------------------------------------------------------------

 methyl with imposed symmetry and cc-pVTZ basis set
 --------------------------------------------------
 Redundant internal coordinates taken from checkpoint file:
 /home/ospite/Desktop/MMfP/Project6/CH3/g09/HF/Gau-18660.chk
 Charge =  0 Multiplicity = 2

                         Standard orientation:
 ---------------------------------------------------------------------
 Center     Atomic      Atomic             Coordinates (Angstroms)
 Number     Number       Type             X           Y           Z
 ---------------------------------------------------------------------
      1          6           0        0.000000    0.000000    0.000000
      2          1           0        0.000000    1.071064   -0.000000
      3          1           0        0.927569   -0.535532   -0.000000
      4          1           0       -0.927569   -0.535532    0.000000
 ---------------------------------------------------------------------

 SCF Done:  E(UHF) =  -39.5776062797     A.U. after    1 cycles

 The electronic state is 2-A2".
 Alpha  occ. eigenvalues --  -11.23044  -0.94983  -0.58240  -0.58240  -0.38442
 Alpha virt. eigenvalues --    0.15076   0.22275   0.22275   0.37647   0.37647
 Alpha virt. eigenvalues --    0.44064   0.49052   0.62374   0.66819   0.66819
 Alpha virt. eigenvalues --    0.73315   0.73315   1.03409   1.06950   1.09402

  Beta  occ. eigenvalues --  -11.20766  -0.85922  -0.56814  -0.56814
  Beta virt. eigenvalues --    0.12204   0.16068   0.22715   0.22715   0.37937
  Beta virt. eigenvalues --    0.37937   0.53730   0.56387   0.64996   0.67784
  Beta virt. eigenvalues --    0.67784   0.78340   0.78340   1.03133   1.09965

 Mulliken atomic charges:
              1
     1  C   -0.372372
     2  H    0.124124
     3  H    0.124124
     4  H    0.124124
 Sum of Mulliken atomic charges =   0.00000

 Dipole moment (field-independent basis, Debye):
    X=              0.0000    Y=              0.0000    Z=             -0.0000  Tot=              0.0000
 Quadrupole moment (field-independent basis, Debye-Ang):
   XX=             -7.1846   YY=             -7.1846   ZZ=             -8.9017
   XY=             -0.0000   XZ=              0.0000   YZ=             -0.0000

  Exact polarizability:  13.294  -0.000  13.294  -0.000   0.000   9.896
 Approx polarizability:  10.740  -0.000  10.740  -0.000   0.000   8.372

                     1                      2                      3
                    A2"                    E'                     E'
 Frequencies --   401.5965              1515.7531              1515.7531
 Red. masses --     1.2356                 1.1021                 1.1021
 Frc consts  --     0.1174                 1.4918                 1.4918
 IR Inten    --    76.7520                 1.7614                 1.7614
 Raman Activ --     0.0000                 1.1564                 1.1564

                     4                      5                      6
                    A1'                    E'                     E'
 Frequencies --  3228.0193              3404.8034              3404.8034
 Red. masses --     1.0078                 1.1184                 1.1184
 Frc consts  --     6.1874                 7.6386                 7.6386
 IR Inten    --     0.0000                 8.9512                 8.9512
 Raman Activ --   146.7253                33.4141                33.4141

 - Thermochemistry -
 -------------------
 Temperature   298.150 Kelvin.  Pressure   1.00000 Atm.
 Atom     1 has atomic number  6 and mass  12.00000

 Molecular mass:    15.02348 amu.
 Principal axes and moments of inertia in atomic units:
                           1         2         3
     Eigenvalues --     6.19306   6.19306  12.38612
           X            0.99724   0.07419   0.00000
           Y           -0.07419   0.99724   0.00000
           Z            0.00000   0.00000   1.00000
 This molecule is an oblate symmetric top.
 Rotational symmetry number  6.
 Rotational temperatures (Kelvin)     13.98563    13.98563     6.99281
 Rotational constants (GHZ):         291.41351   291.41351   145.70675
 Zero-point vibrational energy      80572.9 (Joules/Mol)
                                   19.25737 (Kcal/Mol)
 Warning -- explicit consideration of   1 degrees of freedom as
           vibrations may cause significant error
 Vibrational temperatures:    577.81  2180.83  2180.83  4644.39  4898.75
          (Kelvin)           4898.75

 Zero-point correction=                           0.030689 (Hartree/Particle)
 Thermal correction to Energy=                    0.033838
 Thermal correction to Enthalpy=                  0.034782
 Thermal correction to Gibbs Free Energy=         0.012551
 Sum of electronic and zero-point Energies=            -39.546918
 Sum of electronic and thermal Energies=               -39.543768
 Sum of electronic and thermal Enthalpies=             -39.542824
 Sum of electronic and thermal Free Energies=          -39.565056

                     E (Thermal)             CV                S
                      KCal/Mol        Cal/Mol-Kelvin    Cal/Mol-Kelvin
 Total                   21.234              7.570             46.790
 Electronic               0.000              0.000              1.377
 Translational            0.889              2.981             34.068
 Rotational               0.889              2.981             10.366
 Vibrational             19.456              1.609              0.979
 Vibration     1          0.767              1.467              0.957

 Optimization completed.
    -- Stationary point found.
 Normal termination of Gaussian 09 at Sun Aug 18 00:17:02 2024.
