 Gaussian 09, Revision A.02,
 Gaussian 09:  EM64L-G09RevA.02 11-Jun-2009

 ----------------------------------------------------------------
 #p hf/6-31++G opt freq symmetry=(follow,pg=C3v) pop=full gfinput
 ----------------------------------------------------------------

 ----------------------------------------------------------
 methyl with imposed symmetry and hf/6-31++G basis function
 ----------------------------------------------------------
 Symbolic Z-matrix:
 Charge =  0 Multiplicity = 2

 SCF Done:  E(UHF) =  -39.5481754064     A.U. after   11 cycles
 SCF Done:  E(UHF) =  -39.5488603467     A.U. after    9 cycles
 SCF Done:  E(UHF) =  -39.5488679953     A.U. after    8 cycles
 Optimization completed.
    -- Stationary point found.
 Normal termination of Gaussian 09 at Sat Aug 17 17:46:11 2024.

 ----------------------------------------------------------------
 #P Geom=AllCheck Guess=TCheck SCRF=Check GenChk UHF/6-31++G Freq
 ----------------------------------------------------------------

 methyl with imposed symmetry and hf/6-31++G basis function
 ----------------------------------------------------------
 Redundant internal coordinates taken from checkpoint file:
 /home/ospite/Desktop/MMfP/Project6/CH3/g09/HF/Gau-8371.chk
 Charge =  0 Multiplicity = 2

                         Standard orientation:
 ---------------------------------------------------------------------
 Center     Atomic      Atomic             Coordinates (Angstroms)
 Number     Number       Type             X           Y           Z
 ---------------------------------------------------------------------
      1          6           0        0.000000    0.000000    0.000000
      2          1           0        0.000000    1.071848   -0.000000
      3          1           0        0.928248   -0.535924   -0.000000
      4          1           0       -0.928248   -0.535924    0.000000
 ---------------------------------------------------------------------

 SCF Done:  E(UHF) =  -39.5488679953     A.U. after    1 cycles

 The electronic state is 2-A2".
 Alpha  occ. eigenvalues --  -11.23719  -0.95616  -0.58514  -0.58514  -0.38484
 Alpha virt. eigenvalues --    0.04598   0.07730   0.07730   0.13393   0.17506
 Alpha virt. eigenvalues --    0.17506   0.21207   0.33465   0.36396   0.36396
 Alpha virt. eigenvalues --    0.86478   0.92136   0.92136   1.20407   1.28213

  Beta  occ. eigenvalues --  -11.21265  -0.85955  -0.56825  -0.56825
  Beta virt. eigenvalues --    0.04821   0.07087   0.07807   0.07807   0.17601
  Beta virt. eigenvalues --    0.17601   0.22484   0.22975   0.36477   0.37284
  Beta virt. eigenvalues --    0.37284   0.93740   0.93740   0.99037   1.23572

 Mulliken atomic charges:
              1
     1  C   -0.443982
     2  H    0.147994
     3  H    0.147994
     4  H    0.147994
 Sum of Mulliken atomic charges =  -0.00000

 Dipole moment (field-independent basis, Debye):
    X=              0.0000    Y=             -0.0000    Z=              0.0000  Tot=              0.0000
 Quadrupole moment (field-independent basis, Debye-Ang):
   XX=             -7.3102   YY=             -7.3102   ZZ=             -9.1526
   XY=             -0.0000   XZ=             -0.0000   YZ=             -0.0000

  Exact polarizability:  12.039   0.000  12.039  -0.000  -0.000   8.883
 Approx polarizability:   9.138  -0.000   9.138  -0.000  -0.000   5.608

                     1                      2                      3
                    A2"                    E'                     E'
 Frequencies --   532.7092              1534.2943              1534.2943
 Red. masses --     1.2356                 1.1028                 1.1028
 Frc consts  --     0.2066                 1.5296                 1.5296
 IR Inten    --   120.2258                 4.1524                 4.1524
 Raman Activ --     0.0000                 2.3617                 2.3617

                     4                      5                      6
                    A1'                    E'                     E'
 Frequencies --  3263.1774              3450.3781              3450.3781
 Red. masses --     1.0078                 1.1176                 1.1176
 Frc consts  --     6.3229                 7.8391                 7.8391
 IR Inten    --     0.0000                12.2841                12.2841
 Raman Activ --   153.1271                36.6870                36.6870

 - Thermochemistry -
 -------------------
 Temperature   298.150 Kelvin.  Pressure   1.00000 Atm.
 Atom     1 has atomic number  6 and mass  12.00000

 Molecular mass:    15.02348 amu.
 Principal axes and moments of inertia in atomic units:
                           1         2         3
     Eigenvalues --     6.20213   6.20213  12.40426
           X            0.78975   0.61343   0.00000
           Y           -0.61343   0.78975   0.00000
           Z           -0.00000  -0.00000   1.00000
 This molecule is an oblate symmetric top.
 Rotational symmetry number  6.
 Rotational temperatures (Kelvin)     13.96518    13.96518     6.98259
 Rotational constants (GHZ):         290.98743   290.98743   145.49372
 Zero-point vibrational energy      82334.4 (Joules/Mol)
                                   19.67839 (Kcal/Mol)
 Warning -- explicit consideration of   1 degrees of freedom as
           vibrations may cause significant error
 Vibrational temperatures:    766.45  2207.50  2207.50  4694.98  4964.32
          (Kelvin)           4964.32

 Zero-point correction=                           0.031360 (Hartree/Particle)
 Thermal correction to Energy=                    0.034402
 Thermal correction to Enthalpy=                  0.035346
 Thermal correction to Gibbs Free Energy=         0.013291
 Sum of electronic and zero-point Energies=            -39.517508
 Sum of electronic and thermal Energies=               -39.514466
 Sum of electronic and thermal Enthalpies=             -39.513522
 Sum of electronic and thermal Free Energies=          -39.535577

                     E (Thermal)             CV                S
                      KCal/Mol        Cal/Mol-Kelvin    Cal/Mol-Kelvin
 Total                   21.587              7.272             46.417
 Electronic               0.000              0.000              1.377
 Translational            0.889              2.981             34.068
 Rotational               0.889              2.981             10.371
 Vibrational             19.810              1.311              0.602
 Vibration     1          0.888              1.178              0.581

 Optimization completed.
    -- Stationary point found.
 Normal termination of Gaussian 09 at Sat Aug 17 17:46:14 2024.
