 Gaussian 09, Revision A.02,
 Gaussian 09:  EM64L-G09RevA.02 11-Jun-2009

 ---------------------------------------------------------------
 #p hf/6-31+G opt freq symmetry=(follow,pg=C3v) pop=full gfinput
 ---------------------------------------------------------------

 ---------------------------------------------------------
 methyl with imposed symmetry and hf/6-31+G basis function
 ---------------------------------------------------------
 Symbolic Z-matrix:
 Charge =  0 Multiplicity = 2

 SCF Done:  E(UHF) =  -39.5480814674     A.U. after   11 cycles
 SCF Done:  E(UHF) =  -39.5487757469     A.U. after    9 cycles
 SCF Done:  E(UHF) =  -39.5487835960     A.U. after    8 cycles
 Optimization completed.
    -- Stationary point found.
 Normal termination of Gaussian 09 at Sat Aug 17 17:47:25 2024.

 ---------------------------------------------------------------
 #P Geom=AllCheck Guess=TCheck SCRF=Check GenChk UHF/6-31+G Freq
 ---------------------------------------------------------------

 methyl with imposed symmetry and hf/6-31+G basis function
 ---------------------------------------------------------
 Redundant internal coordinates taken from checkpoint file:
 /home/ospite/Desktop/MMfP/Project6/CH3/g09/HF/Gau-8393.chk
 Charge =  0 Multiplicity = 2

                         Standard orientation:
 ---------------------------------------------------------------------
 Center     Atomic      Atomic             Coordinates (Angstroms)
 Number     Number       Type             X           Y           Z
 ---------------------------------------------------------------------
      1          6           0        0.000000    0.000000    0.000000
      2          1           0        0.000000    1.071730   -0.000000
      3          1           0        0.928146   -0.535865   -0.000000
      4          1           0       -0.928146   -0.535865    0.000000
 ---------------------------------------------------------------------

 SCF Done:  E(UHF) =  -39.5487835960     A.U. after    1 cycles

 The electronic state is 2-A2".
 Alpha  occ. eigenvalues --  -11.23706  -0.95628  -0.58526  -0.58526  -0.38490
 Alpha virt. eigenvalues --    0.09677   0.11896   0.11896   0.13395   0.33323
 Alpha virt. eigenvalues --    0.34420   0.34420   0.85221   0.85221   0.86477
 Alpha virt. eigenvalues --    1.05394   1.28094   1.31706   1.31706
  Beta  occ. eigenvalues --  -11.21252  -0.85958  -0.56834  -0.56834
  Beta virt. eigenvalues --    0.07076   0.10526   0.12069   0.12069   0.22972
  Beta virt. eigenvalues --    0.35167   0.35167   0.36238   0.86921   0.86921
  Beta virt. eigenvalues --    0.99034   1.08975   1.29578   1.31854   1.31854

 Mulliken atomic charges:
              1
     1  C   -0.502576
     2  H    0.167525
     3  H    0.167525
     4  H    0.167525
 Sum of Mulliken atomic charges =   0.00000

 Dipole moment (field-independent basis, Debye):
    X=             -0.0000    Y=             -0.0000    Z=             -0.0000  Tot=              0.0000
 Quadrupole moment (field-independent basis, Debye-Ang):
   XX=             -7.3046   YY=             -7.3046   ZZ=             -9.1601
   XY=             -0.0000   XZ=              0.0000   YZ=              0.0000

  Exact polarizability:  11.736   0.000  11.736  -0.000   0.000   8.401
 Approx polarizability:   8.943  -0.000   8.943  -0.000   0.000   5.331

                     1                      2                      3
                    A2"                    E'                     E'
 Frequencies --   533.1195              1535.3736              1535.3737
 Red. masses --     1.2356                 1.1028                 1.1028
 Frc consts  --     0.2069                 1.5317                 1.5317
 IR Inten    --   118.8928                 3.8283                 3.8283
 Raman Activ --     0.0000                 2.7215                 2.7215

                     4                      5                      6
                    A1'                    E'                     E'
 Frequencies --  3264.8096              3452.2888              3452.2888
 Red. masses --     1.0078                 1.1176                 1.1176
 Frc consts  --     6.3292                 7.8477                 7.8477
 IR Inten    --     0.0000                10.4379                10.4379
 Raman Activ --   138.2305                36.1587                36.1587

 - Thermochemistry -
 -------------------
 Temperature   298.150 Kelvin.  Pressure   1.00000 Atm.
 Atom     1 has atomic number  6 and mass  12.00000

 Molecular mass:    15.02348 amu.
 Principal axes and moments of inertia in atomic units:
                           1         2         3
     Eigenvalues --     6.20077   6.20077  12.40153
           X            0.83509   0.55011   0.00000
           Y           -0.55011   0.83509   0.00000
           Z            0.00000   0.00000   1.00000
 This molecule is an oblate symmetric top.
 Rotational symmetry number  6.
 Rotational temperatures (Kelvin)     13.96825    13.96825     6.98412
 Rotational constants (GHZ):         291.05138   291.05138   145.52569
 Zero-point vibrational energy      82382.4 (Joules/Mol)
                                   19.68985 (Kcal/Mol)
 Warning -- explicit consideration of   1 degrees of freedom as
           vibrations may cause significant error
 Vibrational temperatures:    767.04  2209.06  2209.06  4697.33  4967.07
          (Kelvin)           4967.07

 Zero-point correction=                           0.031378 (Hartree/Particle)
 Thermal correction to Energy=                    0.034420
 Thermal correction to Enthalpy=                  0.035364
 Thermal correction to Gibbs Free Energy=         0.013310
 Sum of electronic and zero-point Energies=            -39.517406
 Sum of electronic and thermal Energies=               -39.514364
 Sum of electronic and thermal Enthalpies=             -39.513420
 Sum of electronic and thermal Free Energies=          -39.535473

                     E (Thermal)             CV                S
                      KCal/Mol        Cal/Mol-Kelvin    Cal/Mol-Kelvin
 Total                   21.599              7.271             46.416
 Electronic               0.000              0.000              1.377
 Translational            0.889              2.981             34.068
 Rotational               0.889              2.981             10.370
 Vibrational             19.821              1.309              0.601
 Vibration     1          0.888              1.177              0.580

 Optimization completed.
    -- Stationary point found.
 Normal termination of Gaussian 09 at Sat Aug 17 17:47:29 2024.
