 Gaussian 09, Revision A.02,
 Gaussian 09:  EM64L-G09RevA.02 11-Jun-2009

 ---------------------------------------------------------------
 #p hf/STO-3G opt freq symmetry=(follow,pg=C3v) pop=full gfinput
 ---------------------------------------------------------------

 ---------------------------------------------------------
 methyl with imposed symmetry and hf/STO-3G basis function
 ---------------------------------------------------------
 Symbolic Z-matrix:
 Charge =  0 Multiplicity = 2

 SCF Done:  E(UHF) =  -39.0763541274     A.U. after    9 cycles
 SCF Done:  E(UHF) =  -39.0766677775     A.U. after    7 cycles
 SCF Done:  E(UHF) =  -39.0767107619     A.U. after    7 cycles
 Optimization completed.
    -- Stationary point found.
 Normal termination of Gaussian 09 at Sat Aug 17 17:50:07 2024.

 ---------------------------------------------------------------
 #P Geom=AllCheck Guess=TCheck SCRF=Check GenChk UHF/STO-3G Freq
 ---------------------------------------------------------------

 methyl with imposed symmetry and hf/STO-3G basis function
 ---------------------------------------------------------
 Redundant internal coordinates taken from checkpoint file:
 /home/ospite/Desktop/MMfP/Project6/CH3/g09/HF/Gau-8458.chk
 Charge =  0 Multiplicity = 2

                         Standard orientation:
 ---------------------------------------------------------------------
 Center     Atomic      Atomic             Coordinates (Angstroms)
 Number     Number       Type             X           Y           Z
 ---------------------------------------------------------------------
      1          6           0        0.000000    0.000000    0.000000
      2          1           0        0.000000    1.078140   -0.000000
      3          1           0        0.933696   -0.539070    0.000000
      4          1           0       -0.933696   -0.539070    0.000000
 ---------------------------------------------------------------------

 SCF Done:  E(UHF) =  -39.0767107619     A.U. after    1 cycles

 The electronic state is 2-A2".
 Alpha  occ. eigenvalues --  -11.00541  -0.90640  -0.53896  -0.53896  -0.35679
 Alpha virt. eigenvalues --    0.63174   0.76996   0.76996
  Beta  occ. eigenvalues --  -10.97411  -0.79679  -0.52205  -0.52205
  Beta virt. eigenvalues --    0.33428   0.69500   0.79668   0.79668

 Mulliken atomic charges:
              1
     1  C   -0.176559
     2  H    0.058853
     3  H    0.058853
     4  H    0.058853
 Sum of Mulliken atomic charges =  -0.00000

 Dipole moment (field-independent basis, Debye):
    X=              0.0000    Y=              0.0000    Z=              0.0000  Tot=              0.0000
 Quadrupole moment (field-independent basis, Debye-Ang):
   XX=             -6.7938   YY=             -6.7938   ZZ=             -7.5348
   XY=             -0.0000   XZ=              0.0000   YZ=             -0.0000

  Exact polarizability:   5.654  -0.000   5.654  -0.000  -0.000   1.789
 Approx polarizability:   4.502  -0.000   4.502  -0.000  -0.000   1.242

 ******    1 imaginary frequencies (negative Signs) ******

                     1                      2                      3
                    A2"                    E'                     E'
 Frequencies --  -429.0658              1669.5521              1669.5521
 Red. masses --     1.2356                 1.0986                 1.0986
 Frc consts  --     0.1340                 1.8042                 1.8042
 IR Inten    --    26.5587                 0.6293                 0.6293
 Raman Activ --     0.0000                 9.1316                 9.1316

                     4                      5                      6
                    A1'                    E'                     E'
 Frequencies --  3557.3356              3842.6318              3842.6318
 Red. masses --     1.0078                 1.1220                 1.1220
 Frc consts  --     7.5142                 9.7610                 9.7610
 IR Inten    --     0.0000                 0.0424                 0.0424
 Raman Activ --    39.2169                14.4425                14.4425

 - Thermochemistry -
 -------------------
 Temperature   298.150 Kelvin.  Pressure   1.00000 Atm.
 Atom     1 has atomic number  6 and mass  12.00000

 Molecular mass:    15.02348 amu.
 Principal axes and moments of inertia in atomic units:
                           1         2         3
     Eigenvalues --     6.27515   6.27515  12.55031
           X           -0.38268   0.92388   0.00000
           Y            0.92388   0.38268   0.00000
           Z           -0.00000  -0.00000   1.00000
 This molecule is an oblate symmetric top.
 Rotational symmetry number  6.
 Rotational temperatures (Kelvin)     13.80266    13.80266     6.90133
 Rotational constants (GHZ):         287.60114   287.60114   143.80057
    1 imaginary frequencies ignored.
 Zero-point vibrational energy      87218.0 (Joules/Mol)
                                   20.84559 (Kcal/Mol)
 Vibrational temperatures:   2402.11  2402.11  5118.21  5528.68  5528.68
          (Kelvin)

 Zero-point correction=                           0.033220 (Hartree/Particle)
 Thermal correction to Energy=                    0.036057
 Thermal correction to Enthalpy=                  0.037001
 Thermal correction to Gibbs Free Energy=         0.015211
 Sum of electronic and zero-point Energies=            -39.043491
 Sum of electronic and thermal Energies=               -39.040654
 Sum of electronic and thermal Enthalpies=             -39.039710
 Sum of electronic and thermal Free Energies=          -39.061500

                     E (Thermal)             CV                S
                      KCal/Mol        Cal/Mol-Kelvin    Cal/Mol-Kelvin
 Total                   22.626              6.043             45.862
 Electronic               0.000              0.000              1.377
 Translational            0.889              2.981             34.068
 Rotational               0.889              2.981             10.406
 Vibrational             20.849              0.082              0.011

 Optimization completed.
    -- Stationary point found.
 Normal termination of Gaussian 09 at Sat Aug 17 17:50:14 2024.
