 Gaussian 09, Revision A.02,
 Gaussian 09:  EM64L-G09RevA.02 11-Jun-2009

 --------------------------------------------------------------------
 #p hf/aug-cc-pVDZ opt freq symmetry=(follow,pg=C3v) pop=full gfinput
 --------------------------------------------------------------------

 --------------------------------------------------------------
 methyl with imposed symmetry and hf/aug-cc-pVDZ basis function
 --------------------------------------------------------------
 Symbolic Z-matrix:
 Charge =  0 Multiplicity = 2

 SCF Done:  E(UHF) =  -39.5655739819     A.U. after   11 cycles
 SCF Done:  E(UHF) =  -39.5658100061     A.U. after    9 cycles
 SCF Done:  E(UHF) =  -39.5658129450     A.U. after    8 cycles
 Optimization completed.
    -- Stationary point found.
 Normal termination of Gaussian 09 at Sat Aug 17 17:48:30 2024.

 --------------------------------------------------------------------
 #P Geom=AllCheck Guess=TCheck SCRF=Check GenChk UHF/Aug-CC-pVDZ Freq
 --------------------------------------------------------------------

 methyl with imposed symmetry and hf/aug-cc-pVDZ basis function
 --------------------------------------------------------------
 Redundant internal coordinates taken from checkpoint file:
 /home/ospite/Desktop/MMfP/Project6/CH3/g09/HF/Gau-8416.chk
 Charge =  0 Multiplicity = 2

                         Standard orientation:
 ---------------------------------------------------------------------
 Center     Atomic      Atomic             Coordinates (Angstroms)
 Number     Number       Type             X           Y           Z
 ---------------------------------------------------------------------
      1          6           0        0.000000    0.000000    0.000000
      2          1           0        0.000000    1.079316    0.000000
      3          1           0        0.934715   -0.539658   -0.000000
      4          1           0       -0.934715   -0.539658   -0.000000
 ---------------------------------------------------------------------

 SCF Done:  E(UHF) =  -39.5658129450     A.U. after    1 cycles

 The electronic state is 2-A2".
 Alpha  occ. eigenvalues --  -11.24272  -0.94881  -0.58064  -0.58064  -0.38314
 Alpha virt. eigenvalues --    0.03746   0.05994   0.05994   0.11628   0.15100
 Alpha virt. eigenvalues --    0.15100   0.17379   0.28554   0.28554   0.28929
 Alpha virt. eigenvalues --    0.36232   0.36232   0.44527   0.44527   0.48498

  Beta  occ. eigenvalues --  -11.21890  -0.85801  -0.56568  -0.56568
  Beta virt. eigenvalues --    0.03925   0.06036   0.06036   0.06778   0.15166
  Beta virt. eigenvalues --    0.15166   0.18115   0.19901   0.28960   0.28960
  Beta virt. eigenvalues --    0.31466   0.37931   0.37931   0.44751   0.44751

 Mulliken atomic charges:
              1
     1  C    0.296416
     2  H   -0.098805
     3  H   -0.098805
     4  H   -0.098805
 Sum of Mulliken atomic charges =   0.00000

 Dipole moment (field-independent basis, Debye):
    X=             -0.0000    Y=             -0.0000    Z=              0.0000  Tot=              0.0000
 Quadrupole moment (field-independent basis, Debye-Ang):
   XX=             -7.2338   YY=             -7.2338   ZZ=             -9.0857
   XY=             -0.0000   XZ=              0.0000   YZ=             -0.0000

  Exact polarizability:  14.875  -0.000  14.875  -0.000   0.000  14.283
 Approx polarizability:  11.948  -0.000  11.948  -0.000   0.000  11.150

                     1                      2                      3
                    A2"                    E'                     E'
 Frequencies --   420.3066              1496.6190              1496.6190
 Red. masses --     1.2356                 1.1019                 1.1019
 Frc consts  --     0.1286                 1.4542                 1.4542
 IR Inten    --    81.6756                 1.6475                 1.6475
 Raman Activ --     0.0000                 0.7086                 0.7086

                     4                      5                      6
                    A1'                    E'                     E'
 Frequencies --  3233.0404              3421.0506              3421.0506
 Red. masses --     1.0078                 1.1185                 1.1185
 Frc consts  --     6.2067                 7.7127                 7.7127
 IR Inten    --     0.0000                 8.5414                 8.5414
 Raman Activ --   156.6929                29.3416                29.3416

 - Thermochemistry -
 -------------------
 Temperature   298.150 Kelvin.  Pressure   1.00000 Atm.
 Atom     1 has atomic number  6 and mass  12.00000

 Molecular mass:    15.02348 amu.
 Principal axes and moments of inertia in atomic units:
                           1         2         3
     Eigenvalues --     6.28885   6.28885  12.57769
           X           -0.61541   0.78821   0.00000
           Y            0.78821   0.61541   0.00000
           Z           -0.00000  -0.00000   1.00000
 This molecule is an oblate symmetric top.
 Rotational symmetry number  6.
 Rotational temperatures (Kelvin)     13.77261    13.77261     6.88630
 Rotational constants (GHZ):         286.97490   286.97490   143.48745
 Zero-point vibrational energy      80680.3 (Joules/Mol)
                                   19.28304 (Kcal/Mol)
 Warning -- explicit consideration of   1 degrees of freedom as
           vibrations may cause significant error
 Vibrational temperatures:    604.73  2153.30  2153.30  4651.62  4922.12
          (Kelvin)           4922.12

 Zero-point correction=                           0.030729 (Hartree/Particle)
 Thermal correction to Energy=                    0.033862
 Thermal correction to Enthalpy=                  0.034806
 Thermal correction to Gibbs Free Energy=         0.012583
 Sum of electronic and zero-point Energies=            -39.535083
 Sum of electronic and thermal Energies=               -39.531951
 Sum of electronic and thermal Enthalpies=             -39.531007
 Sum of electronic and thermal Free Energies=          -39.553230

                     E (Thermal)             CV                S
                      KCal/Mol        Cal/Mol-Kelvin    Cal/Mol-Kelvin
 Total                   21.249              7.539             46.772
 Electronic               0.000              0.000              1.377
 Translational            0.889              2.981             34.068
 Rotational               0.889              2.981             10.412
 Vibrational             19.471              1.578              0.915
 Vibration     1          0.783              1.426              0.891

 Optimization completed.
    -- Stationary point found.
 Normal termination of Gaussian 09 at Sat Aug 17 17:48:37 2024.
