 Gaussian 09, Revision A.02,
 Gaussian 09:  EM64L-G09RevA.02 11-Jun-2009

 ----------------------------------------------------------------
 #p hf/cc-pVQZ opt freq symmetry=(follow,pg=C3v) pop=full gfinput
 ----------------------------------------------------------------

 --------------------------------------------------
 methyl with imposed symmetry and cc-pVQZ basis set
 --------------------------------------------------
 Symbolic Z-matrix:
 Charge =  0 Multiplicity = 2

 SCF Done:  E(UHF) =  -39.5796261901     A.U. after   12 cycles
 SCF Done:  E(UHF) =  -39.5804065720     A.U. after    9 cycles
 SCF Done:  E(UHF) =  -39.5804116005     A.U. after    8 cycles
 Optimization completed.
    -- Stationary point found.
 Normal termination of Gaussian 09 at Sun Aug 18 14:00:59 2024.

 ----------------------------------------------------------------
 #P Geom=AllCheck Guess=TCheck SCRF=Check GenChk UHF/CC-pVQZ Freq
 ----------------------------------------------------------------

 methyl with imposed symmetry and cc-pVQZ basis set
 --------------------------------------------------
 Redundant internal coordinates taken from checkpoint file:
 /home/ospite/Desktop/MMfP/Project6/CH3/g09/HF/Gau-6665.chk
 Charge =  0 Multiplicity = 2

                         Standard orientation:
 ---------------------------------------------------------------------
 Center     Atomic      Atomic             Coordinates (Angstroms)
 Number     Number       Type             X           Y           Z
 ---------------------------------------------------------------------
      1          6           0        0.000000    0.000000    0.000000
      2          1           0        0.000000    1.070462   -0.000000
      3          1           0        0.927047   -0.535231   -0.000000
      4          1           0       -0.927047   -0.535231    0.000000
 ---------------------------------------------------------------------

 SCF Done:  E(UHF) =  -39.5804116005     A.U. after    1 cycles

 The electronic state is 2-A2".
 Alpha  occ. eigenvalues --  -11.23037  -0.95039  -0.58338  -0.58338  -0.38446
 Alpha virt. eigenvalues --    0.12265   0.19201   0.19201   0.29218   0.29218
 Alpha virt. eigenvalues --    0.32906   0.39772   0.48021   0.55078   0.55078
 Alpha virt. eigenvalues --    0.56204   0.56204   0.77935   0.77985   0.81649

  Beta  occ. eigenvalues --  -11.20751  -0.86028  -0.56926  -0.56926
  Beta virt. eigenvalues --    0.10939   0.12991   0.19526   0.19526   0.29431
  Beta virt. eigenvalues --    0.29431   0.43183   0.43702   0.50998   0.55792
  Beta virt. eigenvalues --    0.55792   0.60245   0.60245   0.77795   0.80342

 Mulliken atomic charges:
              1
     1  C   -0.268586
     2  H    0.089529
     3  H    0.089529
     4  H    0.089529
 Sum of Mulliken atomic charges =   0.00000

 Dipole moment (field-independent basis, Debye):
    X=             -0.0000    Y=             -0.0000    Z=              0.0000  Tot=              0.0000
 Quadrupole moment (field-independent basis, Debye-Ang):
   XX=             -7.1888   YY=             -7.1888   ZZ=             -8.9537
   XY=             -0.0000   XZ=             -0.0000   YZ=             -0.0000

  Exact polarizability:  13.937   0.000  13.937  -0.000  -0.000  11.828
 Approx polarizability:  11.259  -0.000  11.259  -0.000  -0.000   9.708

 Error termination via Lnk1e in /programs/64bit/g09/g09-gfortran/bin/l701.exe at Sun Aug 18 14:08:55 2024.
