 Gaussian 09, Revision A.02,
 Gaussian 09:  EM64L-G09RevA.02 11-Jun-2009

 --------------------------------------------------------------
 #p hf/6-31G opt freq symmetry=(follow,pg=C3v) pop=full gfinput
 --------------------------------------------------------------

 -----------------------------------------------------------
 methyl with imposed symmetry Td and hf/6-31G basis function
 -----------------------------------------------------------
 Symbolic Z-matrix:
 Charge =  0 Multiplicity = 2

 SCF Done:  E(UHF) =  -39.5459551106     A.U. after   11 cycles
 SCF Done:  E(UHF) =  -39.5466557183     A.U. after    9 cycles
 SCF Done:  E(UHF) =  -39.5466636334     A.U. after    8 cycles
 Optimization completed.
    -- Stationary point found.
 Normal termination of Gaussian 09 at Sat Aug 17 17:51:07 2024.

 --------------------------------------------------------------
 #P Geom=AllCheck Guess=TCheck SCRF=Check GenChk UHF/6-31G Freq
 --------------------------------------------------------------

 methyl with imposed symmetry Td and hf/6-31G basis function
 -----------------------------------------------------------
 Redundant internal coordinates taken from checkpoint file:
 /home/ospite/Desktop/MMfP/Project6/CH3/g09/HF/Gau-8514.chk
 Charge =  0 Multiplicity = 2

                         Standard orientation:
 ---------------------------------------------------------------------
 Center     Atomic      Atomic             Coordinates (Angstroms)
 Number     Number       Type             X           Y           Z
 ---------------------------------------------------------------------
      1          6           0        0.000000    0.000000    0.000000
      2          1           0        0.000000    1.071648    0.000000
      3          1           0        0.928075   -0.535824   -0.000000
      4          1           0       -0.928075   -0.535824   -0.000000
 ---------------------------------------------------------------------

 SCF Done:  E(UHF) =  -39.5466636334     A.U. after    1 cycles

 The electronic state is 2-A2".
 Alpha  occ. eigenvalues --  -11.22942  -0.95206  -0.58002  -0.58002  -0.38473
 Alpha virt. eigenvalues --    0.25562   0.32937   0.32937   0.74570   0.74937
 Alpha virt. eigenvalues --    0.74937   0.93636   1.22635   1.26085   1.26085
  Beta  occ. eigenvalues --  -11.20416  -0.85231  -0.56252  -0.56252
  Beta virt. eigenvalues --    0.15279   0.28019   0.33871   0.33871   0.76210
  Beta virt. eigenvalues --    0.76210   0.89240   0.97059   1.25420   1.26648
  Beta virt. eigenvalues --    1.26648

 Mulliken atomic charges:
              1
     1  C   -0.458197
     2  H    0.152732
     3  H    0.152732
     4  H    0.152732
 Sum of Mulliken atomic charges =   0.00000

 Dipole moment (field-independent basis, Debye):
    X=             -0.0000    Y=             -0.0000    Z=             -0.0000  Tot=              0.0000
 Quadrupole moment (field-independent basis, Debye-Ang):
   XX=             -7.1661   YY=             -7.1661   ZZ=             -8.7331
   XY=             -0.0000   XZ=              0.0000   YZ=              0.0000

  Exact polarizability:  11.411  -0.000  11.411   0.000   0.000   4.177
 Approx polarizability:   8.667  -0.000   8.667   0.000   0.000   2.976

                     1                      2                      3
                    A2"                    E'                     E'
 Frequencies --   485.5722              1540.8322              1540.8322
 Red. masses --     1.2356                 1.1030                 1.1030
 Frc consts  --     0.1716                 1.5428                 1.5428
 IR Inten    --    97.3031                 2.3793                 2.3793
 Raman Activ --     0.0000                 4.3477                 4.3477

                     4                      5                      6
                    A1'                    E'                     E'
 Frequencies --  3265.1816              3453.0180              3453.0180
 Red. masses --     1.0078                 1.1174                 1.1174
 Frc consts  --     6.3307                 7.8501                 7.8501
 IR Inten    --     0.0000                13.3629                13.3629
 Raman Activ --   129.8115                36.9231                36.9231

 - Thermochemistry -
 -------------------
 Temperature   298.150 Kelvin.  Pressure   1.00000 Atm.
 Atom     1 has atomic number  6 and mass  12.00000

 Molecular mass:    15.02348 amu.
 Principal axes and moments of inertia in atomic units:
                           1         2         3
     Eigenvalues --     6.19981   6.19981  12.39963
           X           -0.65400   0.75649   0.00000
           Y            0.75649   0.65400   0.00000
           Z           -0.00000  -0.00000   1.00000
 This molecule is an oblate symmetric top.
 Rotational symmetry number  6.
 Rotational temperatures (Kelvin)     13.97039    13.97039     6.98520
 Rotational constants (GHZ):         291.09609   291.09609   145.54804
 Zero-point vibrational energy      82174.2 (Joules/Mol)
                                   19.64011 (Kcal/Mol)
 Warning -- explicit consideration of   1 degrees of freedom as
           vibrations may cause significant error
 Vibrational temperatures:    698.63  2216.91  2216.91  4697.86  4968.12
          (Kelvin)           4968.12

 Zero-point correction=                           0.031299 (Hartree/Particle)
 Thermal correction to Energy=                    0.034374
 Thermal correction to Enthalpy=                  0.035319
 Thermal correction to Gibbs Free Energy=         0.013211
 Sum of electronic and zero-point Energies=            -39.515365
 Sum of electronic and thermal Energies=               -39.512289
 Sum of electronic and thermal Enthalpies=             -39.511345
 Sum of electronic and thermal Free Energies=          -39.533453

                     E (Thermal)             CV                S
                      KCal/Mol        Cal/Mol-Kelvin    Cal/Mol-Kelvin
 Total                   21.570              7.374             46.530
 Electronic               0.000              0.000              1.377
 Translational            0.889              2.981             34.068
 Rotational               0.889              2.981             10.370
 Vibrational             19.793              1.412              0.715
 Vibration     1          0.842              1.282              0.695

 Optimization completed.
    -- Stationary point found.
 Normal termination of Gaussian 09 at Sat Aug 17 17:51:10 2024.
