 Gaussian 09, Revision A.02,
 Gaussian 09:  EM64L-G09RevA.02 11-Jun-2009

 ----------------------------------------------
 #p B3LYP/6-31+g(d,p) opt freq pop=full gfinput
 ----------------------------------------------

 -----
 water
 -----
 Symbolic Z-matrix:
 Charge =  0 Multiplicity = 1

 SCF Done:  E(RB3LYP) =  -76.4338966091     A.U. after   10 cycles
 SCF Done:  E(RB3LYP) =  -76.4340455518     A.U. after    9 cycles
 SCF Done:  E(RB3LYP) =  -76.4340476833     A.U. after    6 cycles
 Optimization completed.
    -- Stationary point found.
 Normal termination of Gaussian 09 at Tue Aug 13 20:54:26 2024.

 ----------------------------------------------------------------------
 #P Geom=AllCheck Guess=TCheck SCRF=Check GenChk RB3LYP/6-31+G(d,p) Fre
 q
 ----------------------------------------------------------------------

 water
 -----
 Redundant internal coordinates taken from checkpoint file:
 /home/ospite/Desktop/MMfP/Project3/H2O/Gau-3604.chk
 Charge =  0 Multiplicity = 1

                         Standard orientation:
 ---------------------------------------------------------------------
 Center     Atomic      Atomic             Coordinates (Angstroms)
 Number     Number       Type             X           Y           Z
 ---------------------------------------------------------------------
      1          8           0        0.000000    0.000000    0.116475
      2          1           0       -0.000000    0.769508   -0.465898
      3          1           0       -0.000000   -0.769508   -0.465898
 ---------------------------------------------------------------------

 SCF Done:  E(RB3LYP) =  -76.4340476833     A.U. after    1 cycles

 The electronic state is 1-A1.
 Alpha  occ. eigenvalues --  -19.16960  -1.02230  -0.54235  -0.39422  -0.32104
 Alpha virt. eigenvalues --    0.02516   0.11450   0.15506   0.15506   0.20617
 Alpha virt. eigenvalues --    0.24193   0.90048   0.98868   1.08841   1.11266
 Alpha virt. eigenvalues --    1.12666   1.23126   1.50291   1.53644   1.63051

 Mulliken atomic charges:
              1
     1  O   -0.711950
     2  H    0.355975
     3  H    0.355975
 Sum of Mulliken atomic charges =  -0.00000

 Dipole moment (field-independent basis, Debye):
    X=             -0.0000    Y=              0.0000    Z=             -2.1948  Tot=              2.1948
 Quadrupole moment (field-independent basis, Debye-Ang):
   XX=             -7.8841   YY=             -4.3750   ZZ=             -6.5381
   XY=              0.0000   XZ=              0.0000   YZ=             -0.0000

  Exact polarizability:   6.676   0.000   7.841   0.000   0.000   6.577
 Approx polarizability:   6.823   0.000   9.672   0.000  -0.000   7.658

                     1                      2                      3
                    A1                     A1                     B2
 Frequencies --  1603.0222              3809.8024              3931.9307
 Red. masses --     1.0838                 1.0441                 1.0831
 Frc consts  --     1.6409                 8.9292                 9.8658
 IR Inten    --    91.2560                 6.4134                57.3335

 - Thermochemistry -
 -------------------
 Temperature   298.150 Kelvin.  Pressure   1.00000 Atm.
 Atom     1 has atomic number  8 and mass  15.99491

 Molecular mass:    18.01056 amu.
 Principal axes and moments of inertia in atomic units:
                           1         2         3
     Eigenvalues --     2.16805   4.26225   6.43030
           X           -0.00000   0.00000   1.00000
           Y            1.00000   0.00000  -0.00000
           Z           -0.00000   1.00000  -0.00000
 This molecule is an asymmetric top.
 Rotational symmetry number  2.
 Rotational temperatures (Kelvin)     39.95009    20.32114    13.46963
 Rotational constants (GHZ):         832.42582   423.42435   280.66195
 Zero-point vibrational energy      55894.0 (Joules/Mol)
                                   13.35900 (Kcal/Mol)
 Vibrational temperatures:   2306.39  5481.45  5657.16
          (Kelvin)

 Zero-point correction=                           0.021289 (Hartree/Particle)
 Thermal correction to Energy=                    0.024125
 Thermal correction to Enthalpy=                  0.025069
 Thermal correction to Gibbs Free Energy=         0.003640
 Sum of electronic and zero-point Energies=            -76.412759
 Sum of electronic and thermal Energies=               -76.409923
 Sum of electronic and thermal Enthalpies=             -76.408979
 Sum of electronic and thermal Free Energies=          -76.430407

                     E (Thermal)             CV                S
                      KCal/Mol        Cal/Mol-Kelvin    Cal/Mol-Kelvin
 Total                   15.138              6.014             45.100
 Electronic               0.000              0.000              0.000
 Translational            0.889              2.981             34.608
 Rotational               0.889              2.981             10.484
 Vibrational             13.361              0.052              0.008

 Optimization completed.
    -- Stationary point found.
 Normal termination of Gaussian 09 at Tue Aug 13 20:54:35 2024.
