 Gaussian 09, Revision A.02,
 Gaussian 09:  EM64L-G09RevA.02 11-Jun-2009

 ---------------------------------------------
 #p B3LYP/6-31g(d,p) opt freq pop=full gfinput
 ---------------------------------------------

 -----
 water
 -----
 Symbolic Z-matrix:
 Charge =  0 Multiplicity = 1

 SCF Done:  E(RB3LYP) =  -76.4186536499     A.U. after    9 cycles
 SCF Done:  E(RB3LYP) =  -76.4197044440     A.U. after    9 cycles
 SCF Done:  E(RB3LYP) =  -76.4197366208     A.U. after    7 cycles
 Optimization completed.
    -- Stationary point found.
 Normal termination of Gaussian 09 at Wed Aug 21 02:32:44 2024.

 ----------------------------------------------------------------------
 #P Geom=AllCheck Guess=TCheck SCRF=Check GenChk RB3LYP/6-31G(d,p) Freq
 ----------------------------------------------------------------------

 water
 -----
 Redundant internal coordinates taken from checkpoint file:
 water.chk
 Charge =  0 Multiplicity = 1

                         Standard orientation:
 ---------------------------------------------------------------------
 Center     Atomic      Atomic             Coordinates (Angstroms)
 Number     Number       Type             X           Y           Z
 ---------------------------------------------------------------------
      1          8           0       -0.000000    0.000000    0.119173
      2          1           0       -0.000000    0.759392   -0.476691
      3          1           0       -0.000000   -0.759392   -0.476691
 ---------------------------------------------------------------------

 SCF Done:  E(RB3LYP) =  -76.4197366208     A.U. after    1 cycles

 The electronic state is 1-A1.
 Alpha  occ. eigenvalues --  -19.13799  -0.99732  -0.51504  -0.37099  -0.29196
 Alpha virt. eigenvalues --    0.06537   0.15125   0.75693   0.80551   0.89136
 Alpha virt. eigenvalues --    0.89352   1.01558   1.17532   1.52947   1.53781
 Alpha virt. eigenvalues --    1.64370   2.23876   2.26815   2.45021   2.64118

 Mulliken atomic charges:
              1
     1  O   -0.609881
     2  H    0.304940
     3  H    0.304940
 Sum of Mulliken atomic charges =  -0.00000

 Dipole moment (field-independent basis, Debye):
    X=             -0.0000    Y=             -0.0000    Z=             -2.0426  Tot=              2.0426
 Quadrupole moment (field-independent basis, Debye-Ang):
   XX=             -7.1377   YY=             -4.2962   ZZ=             -5.9762
   XY=              0.0000   XZ=              0.0000   YZ=              0.0000

  Exact polarizability:   2.994  -0.000   7.510  -0.000   0.000   5.557
 Approx polarizability:   3.295   0.000   9.175   0.000   0.000   6.977

                     1                      2                      3
                    A1                     A1                     B2
 Frequencies --  1664.9025              3800.4056              3913.8254
 Red. masses --     1.0827                 1.0452                 1.0811
 Frc consts  --     1.7682                 8.8940                 9.7572
 IR Inten    --    70.3723                 1.6434                20.2656

 - Thermochemistry -
 -------------------
 Temperature   298.150 Kelvin.  Pressure   1.00000 Atm.
 Atom     1 has atomic number  8 and mass  15.99491

 Molecular mass:    18.01056 amu.
 Principal axes and moments of inertia in atomic units:
                           1         2         3
     Eigenvalues --     2.26966   4.15093   6.42059
           X            0.00000   0.00000   1.00000
           Y            1.00000  -0.00000  -0.00000
           Z            0.00000   1.00000  -0.00000
 This molecule is an asymmetric top.
 Rotational symmetry number  2.
 Rotational temperatures (Kelvin)     38.16157    20.86613    13.49001
 Rotational constants (GHZ):         795.15904   434.78014   281.08655
 Zero-point vibrational energy      56099.7 (Joules/Mol)
                                   13.40814 (Kcal/Mol)
 Vibrational temperatures:   2395.42  5467.93  5631.11
          (Kelvin)

 Zero-point correction=                           0.021367 (Hartree/Particle)
 Thermal correction to Energy=                    0.024202
 Thermal correction to Enthalpy=                  0.025146
 Thermal correction to Gibbs Free Energy=         0.003710
 Sum of electronic and zero-point Energies=            -76.398369
 Sum of electronic and thermal Energies=               -76.395534
 Sum of electronic and thermal Enthalpies=             -76.394590
 Sum of electronic and thermal Free Energies=          -76.416026

                     E (Thermal)             CV                S
                      KCal/Mol        Cal/Mol-Kelvin    Cal/Mol-Kelvin
 Total                   15.187              6.003             45.116
 Electronic               0.000              0.000              0.000
 Translational            0.889              2.981             34.608
 Rotational               0.889              2.981             10.502
 Vibrational             13.410              0.042              0.006

 Optimization completed.
    -- Stationary point found.
 Normal termination of Gaussian 09 at Wed Aug 21 02:32:54 2024.
