 Gaussian 09, Revision D.01,
 Gaussian 09:  EM64L-G09RevD.01 24-Apr-2013

 -----------------------------
 #p B3LYP/6-31+g(d,p) opt freq
 -----------------------------

 ---------
 h2o4s gas
 ---------
 Symbolic Z-matrix:
 Charge =  0 Multiplicity = 1

 SCF Done:  E(RB3LYP) =  -700.204987817     A.U. after   12 cycles
 SCF Done:  E(RB3LYP) =  -700.229023858     A.U. after   10 cycles
 SCF Done:  E(RB3LYP) =  -700.232062096     A.U. after   10 cycles
 SCF Done:  E(RB3LYP) =  -700.232592330     A.U. after    9 cycles
 SCF Done:  E(RB3LYP) =  -700.233175426     A.U. after   10 cycles
 SCF Done:  E(RB3LYP) =  -700.233218430     A.U. after    9 cycles
 SCF Done:  E(RB3LYP) =  -700.233220141     A.U. after    8 cycles
 Optimization completed.
    -- Stationary point found.
 Normal termination of Gaussian 09 at Tue Sep 17 19:25:51 2024.

 ----------------------------------------------------------------------
 #P Geom=AllCheck Guess=TCheck SCRF=Check GenChk RB3LYP/6-31+G(d,p) Fre
 q
 ----------------------------------------------------------------------

 Structure from the checkpoint file:  "/g100_scratch/userexternal/ecabiati/g16_14420034/Gau-11128.chk"
 ---------
 h2o4s gas
 ---------
 Charge =  0 Multiplicity = 1

                         Standard orientation:
 ---------------------------------------------------------------------
 Center     Atomic      Atomic             Coordinates (Angstroms)
 Number     Number       Type             X           Y           Z
 ---------------------------------------------------------------------
      1         16           0        0.000000    0.000000    0.166809
      2          8           0       -0.000000    1.262477   -0.862108
      3          8           0       -0.000000   -1.262477   -0.862108
      4          8           0        1.280718   -0.052629    0.839468
      5          8           0       -1.280718    0.052629    0.839468
      6          1           0        0.913980    1.429779   -1.153355
      7          1           0       -0.913980   -1.429779   -1.153355
 ---------------------------------------------------------------------

 SCF Done:  E(RB3LYP) =  -700.233220141     A.U. after    1 cycles

 The electronic state is 1-A.
 Alpha  occ. eigenvalues --  -89.20264 -19.24979 -19.24979 -19.20014 -19.20013
 Alpha  occ. eigenvalues --   -8.22056  -6.18630  -6.18552  -6.18391  -1.21342
 Alpha  occ. eigenvalues --   -1.09517  -1.07680  -1.06459  -0.71645  -0.64052
 Alpha  occ. eigenvalues --   -0.55337  -0.53157  -0.50151  -0.46559  -0.43167
 Alpha  occ. eigenvalues --   -0.40376  -0.39812  -0.36195  -0.36106  -0.34921
 Alpha virt. eigenvalues --   -0.04149   0.00451   0.02916   0.03798   0.03878
 Alpha virt. eigenvalues --    0.05581   0.08221   0.08650   0.12252   0.13894
 Alpha virt. eigenvalues --    0.14783   0.16487   0.16742   0.18342   0.20248

 Mulliken charges:
               1
     1  S    1.598198
     2  O   -0.608372
     3  O   -0.608372
     4  O   -0.580884
     5  O   -0.580884
     6  H    0.390157
     7  H    0.390157
 Sum of Mulliken charges =  -0.00000

 Dipole moment (field-independent basis, Debye):
    X=              0.0000    Y=             -0.0000    Z=             -3.1576  Tot=              3.1576
 Quadrupole moment (field-independent basis, Debye-Ang):
   XX=            -37.1139   YY=            -33.5737   ZZ=            -35.2423
   XY=              5.8451   XZ=              0.0000   YZ=              0.0000

  Exact polarizability:  37.521   1.052  33.263   0.000  -0.000  33.635
 Approx polarizability:  60.319  -0.156  44.664  -0.000  -0.000  47.349

                      1                      2                      3
                      A                      B                      A
 Frequencies --    246.8308               311.5328               348.8101
 Red. masses --      1.3976                 1.1221                11.7539
 Frc consts  --      0.0502                 0.0642                 0.8426
 IR Inten    --   94.33                  68.62                  5.935

                      4                      5                      6
                      A                      B                      A
 Frequencies --    412.4765               460.7945               506.0853
 Red. masses --      2.6908                 4.8725                13.8869
 Frc consts  --      0.2697                 0.6096                 2.0956
 IR Inten    --   27.18                  48.14                  44.20

                      7                      8                      9
                      B                      A                      B
 Frequencies --    511.1186               764.9765               822.8505
 Red. masses --     14.7105                15.3457                18.3828
 Frc consts  --      2.2642                 5.2909                 7.3334
 IR Inten    --   22.53                  118.9                  348.4

                     10                     11                     12
                      A                      B                      A
 Frequencies --   1138.1218              1147.7515              1165.2783
 Red. masses --      1.1608                 1.3110                10.9814
 Frc consts  --      0.8859                 1.0175                 8.7855
 IR Inten    --   103.7                  88.89                  147.5

                     13                     14                     15
                      B                      B                      A
 Frequencies --   1411.2091              3753.2659              3757.3044
 Red. masses --      7.9240                 1.0660                 1.0663
 Frc consts  --      9.2977                 8.8475                 8.8690
 IR Inten    --   303.0                  195.9                  57.30

 - Thermochemistry -
 -------------------
 Temperature   298.150 Kelvin.  Pressure   1.00000 Atm.
 Atom     1 has atomic number 16 and mass  31.97207

 Molecular mass:    97.96738 amu.
 Principal axes and moments of inertia in atomic units:
                           1         2         3
     Eigenvalues --   370.69677 375.74393 390.49910
           X            0.36278   0.93187  -0.00000
           Y            0.93187  -0.36278  -0.00000
           Z            0.00000  -0.00000   1.00000
 This molecule is an asymmetric top.
 Rotational symmetry number  2.
 Rotational temperatures (Kelvin)      0.23365     0.23051     0.22180
 Rotational constants (GHZ):           4.86851     4.80311     4.62163
 Zero-point vibrational energy     100237.5 (Joules/Mol)
                                   23.95734 (Kcal/Mol)
 Warning -- explicit consideration of   7 degrees of freedom as
           vibrations may cause significant error
 Vibrational temperatures:    355.13   448.23   501.86   593.46   662.98
          (Kelvin)            728.14   735.38  1100.63  1183.90  1637.50
                             1651.36  1676.57  2030.41  5400.11  5405.92

 Zero-point correction=                           0.038178 (Hartree/Particle)
 Thermal correction to Energy=                    0.043488
 Thermal correction to Enthalpy=                  0.044432
 Thermal correction to Gibbs Free Energy=         0.010407
 Sum of electronic and zero-point Energies=           -700.195042
 Sum of electronic and thermal Energies=              -700.189732
 Sum of electronic and thermal Enthalpies=            -700.188788
 Sum of electronic and thermal Free Energies=         -700.222813

                     E (Thermal)             CV                S
                      KCal/Mol        Cal/Mol-Kelvin    Cal/Mol-Kelvin
 Total                   27.289             18.346             71.611
 Electronic               0.000              0.000              0.000
 Translational            0.889              2.981             39.657
 Rotational               0.889              2.981             24.123
 Vibrational             25.512             12.385              7.831
 Vibration     1          0.661              1.768              1.753
 Vibration     2          0.700              1.652              1.354
 Vibration     3          0.726              1.578              1.172
 Vibration     4          0.776              1.443              0.918
 Vibration     5          0.819              1.337              0.764
 Vibration     6          0.861              1.237              0.643
 Vibration     7          0.866              1.225              0.631

 Optimization completed.
    -- Stationary point found.
 Normal termination of Gaussian 09 at Tue Sep 17 19:25:56 2024.
