 Gaussian 09, Revision D.01,
 Gaussian 09:  EM64L-G09RevD.01 24-Apr-2013

 -----------------------------
 #p B3LYP/6-31+g(d,p) opt freq
 -----------------------------

 ---------
 h2o4s gas
 ---------
 Symbolic Z-matrix:
 Charge =  0 Multiplicity = 1

 SCF Done:  E(RB3LYP) =  -700.204908253     A.U. after   12 cycles
 SCF Done:  E(RB3LYP) =  -700.229219124     A.U. after   10 cycles
 SCF Done:  E(RB3LYP) =  -700.231514058     A.U. after   10 cycles
 SCF Done:  E(RB3LYP) =  -700.231626791     A.U. after    8 cycles
 SCF Done:  E(RB3LYP) =  -700.231972518     A.U. after    9 cycles
 SCF Done:  E(RB3LYP) =  -700.232431969     A.U. after   10 cycles
 SCF Done:  E(RB3LYP) =  -700.232717280     A.U. after    9 cycles
 SCF Done:  E(RB3LYP) =  -700.233087926     A.U. after   10 cycles
 SCF Done:  E(RB3LYP) =  -700.233168128     A.U. after   10 cycles
 SCF Done:  E(RB3LYP) =  -700.233223003     A.U. after    9 cycles
 SCF Done:  E(RB3LYP) =  -700.233223345     A.U. after    7 cycles
 Optimization completed.
    -- Stationary point found.
 Normal termination of Gaussian 09 at Wed Sep 18 00:18:38 2024.

 ----------------------------------------------------------------------
 #P Geom=AllCheck Guess=TCheck SCRF=Check GenChk RB3LYP/6-31+G(d,p) Fre
 q
 ----------------------------------------------------------------------

 Structure from the checkpoint file:  "/g100_scratch/userexternal/ecabiati/g16_14421766/Gau-35789.chk"
 ---------
 h2o4s gas
 ---------
 Charge =  0 Multiplicity = 1

                         Standard orientation:
 ---------------------------------------------------------------------
 Center     Atomic      Atomic             Coordinates (Angstroms)
 Number     Number       Type             X           Y           Z
 ---------------------------------------------------------------------
      1         16           0        0.000000   -0.000000    0.166750
      2          8           0       -1.261261    0.051774   -0.862283
      3          8           0        1.261261   -0.051774   -0.862283
      4          8           0        0.000000    1.281665    0.839675
      5          8           0       -0.000000   -1.281665    0.839675
      6          1           0       -1.466215   -0.854653   -1.153135
      7          1           0        1.466215    0.854653   -1.153135
 ---------------------------------------------------------------------

 SCF Done:  E(RB3LYP) =  -700.233223345     A.U. after    1 cycles

 The electronic state is 1-A.
 Alpha  occ. eigenvalues --  -89.20264 -19.24980 -19.24979 -19.20012 -19.20011
 Alpha  occ. eigenvalues --   -8.22056  -6.18630  -6.18552  -6.18391  -1.21343
 Alpha  occ. eigenvalues --   -1.09518  -1.07682  -1.06457  -0.71648  -0.64052
 Alpha  occ. eigenvalues --   -0.55337  -0.53158  -0.50149  -0.46559  -0.43170
 Alpha  occ. eigenvalues --   -0.40376  -0.39811  -0.36194  -0.36105  -0.34919
 Alpha virt. eigenvalues --   -0.04148   0.00450   0.02918   0.03802   0.03879
 Alpha virt. eigenvalues --    0.05581   0.08227   0.08646   0.12250   0.13892
 Alpha virt. eigenvalues --    0.14782   0.16489   0.16738   0.18341   0.20245

 Mulliken charges:
               1
     1  S    1.598158
     2  O   -0.608339
     3  O   -0.608339
     4  O   -0.580908
     5  O   -0.580908
     6  H    0.390167
     7  H    0.390167
 Sum of Mulliken charges =  -0.00000

 Dipole moment (field-independent basis, Debye):
    X=              0.0000    Y=              0.0000    Z=             -3.1576  Tot=              3.1576
 Quadrupole moment (field-independent basis, Debye-Ang):
   XX=            -33.0965   YY=            -37.5857   ZZ=            -35.2471
   XY=              5.6814   XZ=              0.0000   YZ=              0.0000

  Exact polarizability:  33.354   1.224  37.424  -0.000  -0.000  33.638
 Approx polarizability:  44.672   0.489  60.294  -0.000  -0.000  47.358

                      1                      2                      3
                      A                      B                      A
 Frequencies --    246.2046               310.7744               348.8274
 Red. masses --      1.3922                 1.1218                11.7996
 Frc consts  --      0.0497                 0.0638                 0.8459
 IR Inten    --   94.83                  68.90                  5.801

                      4                      5                      6
                      A                      B                      A
 Frequencies --    412.1259               460.8458               506.2053
 Red. masses --      2.7088                 4.8818                13.8989
 Frc consts  --      0.2711                 0.6109                 2.0984
 IR Inten    --   26.92                  47.84                  44.09

                      7                      8                      9
                      B                      A                      B
 Frequencies --    511.2307               765.1341               823.0334
 Red. masses --     14.6922                15.3401                18.3872
 Frc consts  --      2.2624                 5.2912                 7.3384
 IR Inten    --   22.61                  118.7                  348.5

                     10                     11                     12
                      A                      B                      A
 Frequencies --   1138.3400              1147.9505              1165.4754
 Red. masses --      1.1607                 1.3110                10.9833
 Frc consts  --      0.8862                 1.0179                 8.7900
 IR Inten    --   103.9                  88.85                  147.5

                     13                     14                     15
                      B                      B                      A
 Frequencies --   1411.2237              3752.9908              3757.0238
 Red. masses --      7.9202                 1.0660                 1.0663
 Frc consts  --      9.2934                 8.8462                 8.8677
 IR Inten    --   303.0                  196.1                  57.28

 - Thermochemistry -
 -------------------
 Temperature   298.150 Kelvin.  Pressure   1.00000 Atm.
 Atom     1 has atomic number 16 and mass  31.97207

 Molecular mass:    97.96738 amu.
 Principal axes and moments of inertia in atomic units:
                           1         2         3
     Eigenvalues --   370.71889 375.77872 390.41944
           X            0.94531  -0.32618   0.00000
           Y            0.32618   0.94531   0.00000
           Z            0.00000  -0.00000   1.00000
 This molecule is an asymmetric top.
 Rotational symmetry number  2.
 Rotational temperatures (Kelvin)      0.23364     0.23049     0.22185
 Rotational constants (GHZ):           4.86822     4.80267     4.62257
 Zero-point vibrational energy     100231.4 (Joules/Mol)
                                   23.95589 (Kcal/Mol)
 Warning -- explicit consideration of   7 degrees of freedom as
           vibrations may cause significant error
 Vibrational temperatures:    354.23   447.13   501.88   592.96   663.05
          (Kelvin)            728.32   735.55  1100.86  1184.16  1637.82
                             1651.64  1676.86  2030.43  5399.71  5405.51

 Zero-point correction=                           0.038176 (Hartree/Particle)
 Thermal correction to Energy=                    0.043487
 Thermal correction to Enthalpy=                  0.044432
 Thermal correction to Gibbs Free Energy=         0.010403
 Sum of electronic and zero-point Energies=           -700.195047
 Sum of electronic and thermal Energies=              -700.189736
 Sum of electronic and thermal Enthalpies=            -700.188792
 Sum of electronic and thermal Free Energies=         -700.222821

                     E (Thermal)             CV                S
                      KCal/Mol        Cal/Mol-Kelvin    Cal/Mol-Kelvin
 Total                   27.289             18.348             71.620
 Electronic               0.000              0.000              0.000
 Translational            0.889              2.981             39.657
 Rotational               0.889              2.981             24.123
 Vibrational             25.511             12.386              7.840
 Vibration     1          0.661              1.769              1.758
 Vibration     2          0.700              1.653              1.358
 Vibration     3          0.726              1.578              1.171
 Vibration     4          0.776              1.444              0.919
 Vibration     5          0.819              1.337              0.764
 Vibration     6          0.861              1.236              0.643
 Vibration     7          0.866              1.225              0.631

 Optimization completed.
    -- Stationary point found.
 Normal termination of Gaussian 09 at Wed Sep 18 00:18:43 2024.
