 Gaussian 09, Revision D.01,
 Gaussian 09:  EM64L-G09RevD.01 24-Apr-2013

 ------------------------
 #p B3LYP/6-31+g(d,p) opt
 ------------------------

 ---------
 h2o4s gas
 ---------
 Symbolic Z-matrix:
 Charge =  0 Multiplicity = 1

 SCF Done:  E(RB3LYP) =  -700.204987817     A.U. after   12 cycles
 SCF Done:  E(RB3LYP) =  -700.229023858     A.U. after   10 cycles
 SCF Done:  E(RB3LYP) =  -700.232062096     A.U. after   10 cycles
 SCF Done:  E(RB3LYP) =  -700.232592330     A.U. after    9 cycles
 SCF Done:  E(RB3LYP) =  -700.233175426     A.U. after   10 cycles
 SCF Done:  E(RB3LYP) =  -700.233218430     A.U. after    9 cycles
 SCF Done:  E(RB3LYP) =  -700.233220141     A.U. after    8 cycles
 Optimization completed.
    -- Stationary point found.

                         Standard orientation:
 ---------------------------------------------------------------------
 Center     Atomic      Atomic             Coordinates (Angstroms)
 Number     Number       Type             X           Y           Z
 ---------------------------------------------------------------------
      1         16           0       -0.000000   -0.000000    0.166809
      2          8           0        0.000000    1.262477   -0.862108
      3          8           0       -0.000000   -1.262477   -0.862108
      4          8           0        1.280718   -0.052629    0.839468
      5          8           0       -1.280718    0.052629    0.839468
      6          1           0        0.913980    1.429779   -1.153355
      7          1           0       -0.913980   -1.429779   -1.153355
 ---------------------------------------------------------------------

 The electronic state is 1-A.
 Alpha  occ. eigenvalues --  -89.20264 -19.24979 -19.24979 -19.20014 -19.20013
 Alpha  occ. eigenvalues --   -8.22056  -6.18630  -6.18552  -6.18391  -1.21342
 Alpha  occ. eigenvalues --   -1.09517  -1.07680  -1.06459  -0.71645  -0.64052
 Alpha  occ. eigenvalues --   -0.55337  -0.53157  -0.50151  -0.46559  -0.43167
 Alpha  occ. eigenvalues --   -0.40376  -0.39812  -0.36195  -0.36106  -0.34921
 Alpha virt. eigenvalues --   -0.04149   0.00451   0.02916   0.03798   0.03878
 Alpha virt. eigenvalues --    0.05581   0.08221   0.08650   0.12252   0.13894
 Alpha virt. eigenvalues --    0.14783   0.16487   0.16742   0.18342   0.20248

 Mulliken charges:
               1
     1  S    1.598198
     2  O   -0.608372
     3  O   -0.608372
     4  O   -0.580884
     5  O   -0.580884
     6  H    0.390157
     7  H    0.390157
 Sum of Mulliken charges =   0.00000

 Dipole moment (field-independent basis, Debye):
    X=             -0.0000    Y=             -0.0000    Z=             -3.1576  Tot=              3.1576
 Quadrupole moment (field-independent basis, Debye-Ang):
   XX=            -37.1139   YY=            -33.5738   ZZ=            -35.2423
   XY=              5.8451   XZ=             -0.0000   YZ=              0.0000

 Normal termination of Gaussian 09 at Tue Sep 17 13:38:38 2024.
