 Gaussian 09, Revision D.01,
 Gaussian 09:  EM64L-G09RevD.01 24-Apr-2013

 ------------------------------------------------------
 #p B3LYP/6-31+g(d,p) opt freq scrf=(smd,solvent=water)
 ------------------------------------------------------

 ---------
 h2o4s sol
 ---------
 Symbolic Z-matrix:
 Charge =  0 Multiplicity = 1

 SCF Done:  E(RB3LYP) =  -700.231251866     A.U. after   10 cycles
 SCF Done:  E(RB3LYP) =  -700.252513500     A.U. after   10 cycles
 SCF Done:  E(RB3LYP) =  -700.254312570     A.U. after    9 cycles
 SCF Done:  E(RB3LYP) =  -700.254410629     A.U. after    8 cycles
 SCF Done:  E(RB3LYP) =  -700.254590079     A.U. after    9 cycles
 SCF Done:  E(RB3LYP) =  -700.254995314     A.U. after   10 cycles
 SCF Done:  E(RB3LYP) =  -700.251061440     A.U. after   11 cycles
 SCF Done:  E(RB3LYP) =  -700.255315873     A.U. after    9 cycles
 SCF Done:  E(RB3LYP) =  -700.255864913     A.U. after    9 cycles
 SCF Done:  E(RB3LYP) =  -700.257008700     A.U. after    9 cycles
 SCF Done:  E(RB3LYP) =  -700.257168559     A.U. after    9 cycles
 SCF Done:  E(RB3LYP) =  -700.257185302     A.U. after    8 cycles
 SCF Done:  E(RB3LYP) =  -700.257187801     A.U. after    8 cycles
 Optimization completed.
    -- Stationary point found.
 Normal termination of Gaussian 09 at Wed Sep 18 00:20:35 2024.

 ----------------------------------------------------------------------
 #P Geom=AllCheck Guess=TCheck SCRF=Check GenChk RB3LYP/6-31+G(d,p) Fre
 q
 ----------------------------------------------------------------------

 Structure from the checkpoint file:  "/g100_scratch/userexternal/ecabiati/g16_14421777/Gau-59183.chk"
 ---------
 h2o4s sol
 ---------
 Charge =  0 Multiplicity = 1

                         Standard orientation:
 ---------------------------------------------------------------------
 Center     Atomic      Atomic             Coordinates (Angstroms)
 Number     Number       Type             X           Y           Z
 ---------------------------------------------------------------------
      1         16           0        0.000000   -0.000000    0.149659
      2          8           0       -0.000000    1.262302   -0.845230
      3          8           0        0.000000   -1.262302   -0.845230
      4          8           0        1.266309    0.087571    0.860577
      5          8           0       -1.266309   -0.087571    0.860577
      6          1           0       -0.853781    1.343720   -1.320051
      7          1           0        0.853781   -1.343720   -1.320051
 ---------------------------------------------------------------------

 SCF Done:  E(RB3LYP) =  -700.257187801     A.U. after    1 cycles

 The electronic state is 1-A.
 Alpha  occ. eigenvalues --  -89.20498 -19.24186 -19.24186 -19.19878 -19.19878
 Alpha  occ. eigenvalues --   -8.22196  -6.18782  -6.18685  -6.18560  -1.21186
 Alpha  occ. eigenvalues --   -1.08724  -1.07251  -1.06051  -0.71092  -0.63997
 Alpha  occ. eigenvalues --   -0.55134  -0.53099  -0.49919  -0.45802  -0.42511
 Alpha  occ. eigenvalues --   -0.40234  -0.40146  -0.36342  -0.36029  -0.34448
 Alpha virt. eigenvalues --   -0.02430   0.02793   0.03699   0.04410   0.04545
 Alpha virt. eigenvalues --    0.05766   0.08486   0.09085   0.14572   0.14675
 Alpha virt. eigenvalues --    0.15799   0.16783   0.16917   0.18244   0.20684

 Mulliken charges:
               1
     1  S    1.656882
     2  O   -0.635356
     3  O   -0.635356
     4  O   -0.653002
     5  O   -0.653002
     6  H    0.459918
     7  H    0.459918
 Sum of Mulliken charges =  -0.00000

 Dipole moment (field-independent basis, Debye):
    X=             -0.0000    Y=              0.0000    Z=             -5.4868  Tot=              5.4868
 Quadrupole moment (field-independent basis, Debye-Ang):
   XX=            -38.4209   YY=            -33.9450   ZZ=            -33.1155
   XY=             -6.1927   XZ=             -0.0000   YZ=              0.0000

  Exact polarizability:  48.698   0.242  41.914   0.000   0.000  43.706
 Approx polarizability:  56.787   1.540  44.587   0.000   0.000  47.285

                      1                      2                      3
                      A                      B                      A
 Frequencies --    264.9886               350.6381               371.6801
 Red. masses --      1.6269                 1.1063                 7.2949
 Frc consts  --      0.0673                 0.0801                 0.5938
 IR Inten    --   122.5                  216.4                  12.65

                      4                      5                      6
                      A                      B                      A
 Frequencies --    425.7901               465.9676               498.3447
 Red. masses --      2.3175                 5.9454                12.9948
 Frc consts  --      0.2475                 0.7606                 1.9014
 IR Inten    --   100.9                  67.67                  100.1

                      7                      8                      9
                      B                      A                      B
 Frequencies --    513.0441               772.9683               816.4258
 Red. masses --     15.4381                15.7798                19.0848
 Frc consts  --      2.3942                 5.5549                 7.4950
 IR Inten    --   50.93                  189.3                  516.9

                     10                     11                     12
                      A                      B                      A
 Frequencies --   1114.6410              1152.4317              1173.8564
 Red. masses --      3.3698                 1.2990                 1.5448
 Frc consts  --      2.4667                 1.0164                 1.2542
 IR Inten    --   378.0                  134.2                  13.33

                     13                     14                     15
                      B                      B                      A
 Frequencies --   1330.0185              3657.9033              3665.3013
 Red. masses --      7.1813                 1.0667                 1.0668
 Frc consts  --      7.4846                 8.4089                 8.4443
 IR Inten    --   635.4                  419.6                  245.2

 - Thermochemistry -
 -------------------
 Temperature   298.150 Kelvin.  Pressure   1.00000 Atm.
 Atom     1 has atomic number 16 and mass  31.97207

 Molecular mass:    97.96738 amu.
 Principal axes and moments of inertia in atomic units:
                           1         2         3
     Eigenvalues --   367.45446 379.01190 384.33123
           X            0.42060   0.90725  -0.00000
           Y            0.90725  -0.42060   0.00000
           Z            0.00000   0.00000   1.00000
 This molecule is an asymmetric top.
 Rotational symmetry number  2.
 Rotational temperatures (Kelvin)      0.23571     0.22853     0.22536
 Rotational constants (GHZ):           4.91147     4.76170     4.69580
 Zero-point vibrational energy      99134.5 (Joules/Mol)
                                   23.69372 (Kcal/Mol)
 Warning -- explicit consideration of   7 degrees of freedom as
           vibrations may cause significant error
 Vibrational temperatures:    381.26   504.49   534.76   612.62   670.42
          (Kelvin)            717.01   738.16  1112.13  1174.65  1603.72
                             1658.09  1688.92  1913.60  5262.90  5273.54

 Zero-point correction=                           0.037758 (Hartree/Particle)
 Thermal correction to Energy=                    0.042963
 Thermal correction to Enthalpy=                  0.043908
 Thermal correction to Gibbs Free Energy=         0.010105
 Sum of electronic and zero-point Energies=           -700.219429
 Sum of electronic and thermal Energies=              -700.214224
 Sum of electronic and thermal Enthalpies=            -700.213280
 Sum of electronic and thermal Free Energies=         -700.247082

                     E (Thermal)             CV                S
                      KCal/Mol        Cal/Mol-Kelvin    Cal/Mol-Kelvin
 Total                   26.960             18.200             71.143
 Electronic               0.000              0.000              0.000
 Translational            0.889              2.981             39.657
 Rotational               0.889              2.981             24.107
 Vibrational             25.183             12.239              7.379
 Vibration     1          0.671              1.737              1.629
 Vibration     2          0.728              1.574              1.163
 Vibration     3          0.743              1.530              1.073
 Vibration     4          0.788              1.414              0.873
 Vibration     5          0.823              1.326              0.749
 Vibration     6          0.854              1.254              0.662
 Vibration     7          0.868              1.221              0.626

 Optimization completed.
    -- Stationary point found.
 Normal termination of Gaussian 09 at Wed Sep 18 00:20:42 2024.
