 Gaussian 09, Revision D.01,
 Gaussian 09:  EM64L-G09RevD.01 24-Apr-2013

 ------------------------------------------------------
 #p B3LYP/6-31+g(d,p) opt freq scrf=(smd,solvent=water)
 ------------------------------------------------------

 ---------
 h2o4s sol
 ---------
 Symbolic Z-matrix:
 Charge =  0 Multiplicity = 1

 SCF Done:  E(RB3LYP) =  -700.235605392     A.U. after   10 cycles
 SCF Done:  E(RB3LYP) =  -700.255102327     A.U. after   10 cycles
 SCF Done:  E(RB3LYP) =  -700.256907582     A.U. after    9 cycles
 SCF Done:  E(RB3LYP) =  -700.257053315     A.U. after    9 cycles
 SCF Done:  E(RB3LYP) =  -700.257159353     A.U. after    9 cycles
 SCF Done:  E(RB3LYP) =  -700.257184348     A.U. after    8 cycles
 SCF Done:  E(RB3LYP) =  -700.257187722     A.U. after    8 cycles
 SCF Done:  E(RB3LYP) =  -700.257188019     A.U. after    7 cycles
 Optimization completed.
    -- Stationary point found.
 Normal termination of Gaussian 09 at Tue Sep 17 19:27:06 2024.

 ----------------------------------------------------------------------
 #P Geom=AllCheck Guess=TCheck SCRF=Check GenChk RB3LYP/6-31+G(d,p) Fre
 q
 ----------------------------------------------------------------------

 Structure from the checkpoint file:  "/g100_scratch/userexternal/ecabiati/g16_14420035/Gau-26620.chk"
 ---------
 h2o4s sol
 ---------
 Charge =  0 Multiplicity = 1

                         Standard orientation:
 ---------------------------------------------------------------------
 Center     Atomic      Atomic             Coordinates (Angstroms)
 Number     Number       Type             X           Y           Z
 ---------------------------------------------------------------------
      1         16           0        0.000000   -0.000000    0.149541
      2          8           0       -0.000000    1.262225   -0.845258
      3          8           0       -0.000000   -1.262225   -0.845258
      4          8           0        1.266016   -0.088084    0.860812
      5          8           0       -1.266016    0.088084    0.860812
      6          1           0        0.853333    1.343288   -1.320757
      7          1           0       -0.853333   -1.343288   -1.320757
 ---------------------------------------------------------------------

 SCF Done:  E(RB3LYP) =  -700.257188019     A.U. after    1 cycles

 The electronic state is 1-A.
 Alpha  occ. eigenvalues --  -89.20497 -19.24188 -19.24188 -19.19873 -19.19873
 Alpha  occ. eigenvalues --   -8.22196  -6.18781  -6.18684  -6.18560  -1.21190
 Alpha  occ. eigenvalues --   -1.08729  -1.07256  -1.06048  -0.71095  -0.64004
 Alpha  occ. eigenvalues --   -0.55131  -0.53099  -0.49923  -0.45800  -0.42513
 Alpha  occ. eigenvalues --   -0.40236  -0.40147  -0.36344  -0.36027  -0.34444
 Alpha virt. eigenvalues --   -0.02427   0.02796   0.03701   0.04411   0.04548
 Alpha virt. eigenvalues --    0.05769   0.08500   0.09084   0.14575   0.14676
 Alpha virt. eigenvalues --    0.15802   0.16784   0.16912   0.18245   0.20685

 Mulliken charges:
               1
     1  S    1.656926
     2  O   -0.635292
     3  O   -0.635292
     4  O   -0.653104
     5  O   -0.653104
     6  H    0.459933
     7  H    0.459933
 Sum of Mulliken charges =   0.00000

 Dipole moment (field-independent basis, Debye):
    X=             -0.0000    Y=              0.0000    Z=             -5.4933  Tot=              5.4933
 Quadrupole moment (field-independent basis, Debye-Ang):
   XX=            -38.4236   YY=            -33.9480   ZZ=            -33.1073
   XY=              6.1909   XZ=              0.0000   YZ=              0.0000

  Exact polarizability:  48.680  -0.252  41.909   0.000  -0.000  43.712
 Approx polarizability:  56.757  -1.552  44.584   0.000   0.000  47.293

                      1                      2                      3
                      A                      B                      A
 Frequencies --    263.9849               349.2684               371.6965
 Red. masses --      1.6181                 1.1063                 7.2865
 Frc consts  --      0.0664                 0.0795                 0.5931
 IR Inten    --   123.2                  216.7                  12.46

                      4                      5                      6
                      A                      B                      A
 Frequencies --    425.2874               465.8343               498.3756
 Red. masses --      2.3355                 5.9407                12.9907
 Frc consts  --      0.2489                 0.7595                 1.9011
 IR Inten    --   100.2                  67.57                  100.3

                      7                      8                      9
                      B                      A                      B
 Frequencies --    513.0388               773.1777               816.6850
 Red. masses --     15.4337                15.7787                19.0864
 Frc consts  --      2.3934                 5.5575                 7.5004
 IR Inten    --   50.93                  189.4                  517.0

                     10                     11                     12
                      A                      B                      A
 Frequencies --   1114.6500              1151.9392              1173.6119
 Red. masses --      3.3118                 1.2980                 1.5577
 Frc consts  --      2.4244                 1.0148                 1.2641
 IR Inten    --   376.8                  134.2                  14.44

                     13                     14                     15
                      B                      B                      A
 Frequencies --   1330.0610              3659.1310              3666.5300
 Red. masses --      7.2196                 1.0667                 1.0668
 Frc consts  --      7.5250                 8.4145                 8.4499
 IR Inten    --   635.7                  419.1                  245.7

 - Thermochemistry -
 -------------------
 Temperature   298.150 Kelvin.  Pressure   1.00000 Atm.
 Atom     1 has atomic number 16 and mass  31.97207

 Molecular mass:    97.96738 amu.
 Principal axes and moments of inertia in atomic units:
                           1         2         3
     Eigenvalues --   367.37757 379.09964 384.22065
           X           -0.42245   0.90639   0.00000
           Y            0.90639   0.42245   0.00000
           Z           -0.00000  -0.00000   1.00000
 This molecule is an asymmetric top.
 Rotational symmetry number  2.
 Rotational temperatures (Kelvin)      0.23576     0.22847     0.22543
 Rotational constants (GHZ):           4.91250     4.76060     4.69715
 Zero-point vibrational energy      99130.2 (Joules/Mol)
                                   23.69268 (Kcal/Mol)
 Warning -- explicit consideration of   7 degrees of freedom as
           vibrations may cause significant error
 Vibrational temperatures:    379.81   502.52   534.79   611.89   670.23
          (Kelvin)            717.05   738.15  1112.43  1175.03  1603.73
                             1657.38  1688.56  1913.66  5264.67  5275.31

 Zero-point correction=                           0.037757 (Hartree/Particle)
 Thermal correction to Energy=                    0.042965
 Thermal correction to Enthalpy=                  0.043909
 Thermal correction to Gibbs Free Energy=         0.010100
 Sum of electronic and zero-point Energies=           -700.219431
 Sum of electronic and thermal Energies=              -700.214223
 Sum of electronic and thermal Enthalpies=            -700.213279
 Sum of electronic and thermal Free Energies=         -700.247088

                     E (Thermal)             CV                S
                      KCal/Mol        Cal/Mol-Kelvin    Cal/Mol-Kelvin
 Total                   26.961             18.206             71.157
 Electronic               0.000              0.000              0.000
 Translational            0.889              2.981             39.657
 Rotational               0.889              2.981             24.107
 Vibrational             25.184             12.244              7.393
 Vibration     1          0.671              1.739              1.635
 Vibration     2          0.727              1.577              1.169
 Vibration     3          0.743              1.530              1.073
 Vibration     4          0.787              1.415              0.874
 Vibration     5          0.823              1.326              0.749
 Vibration     6          0.854              1.254              0.662
 Vibration     7          0.868              1.221              0.626

 Optimization completed.
    -- Stationary point found.
 Normal termination of Gaussian 09 at Tue Sep 17 19:27:13 2024.
