 Gaussian 09, Revision D.01,
 Gaussian 09:  EM64L-G09RevD.01 24-Apr-2013

 -------------------------------------------------
 #p B3LYP/6-31+g(d,p) opt scrf=(smd,solvent=water)
 -------------------------------------------------

 ---------
 h2o4s sol
 ---------
 Symbolic Z-matrix:
 Charge =  0 Multiplicity = 1

 SCF Done:  E(RB3LYP) =  -700.235605392     A.U. after   10 cycles
 SCF Done:  E(RB3LYP) =  -700.255102327     A.U. after   10 cycles
 SCF Done:  E(RB3LYP) =  -700.256907582     A.U. after    9 cycles
 SCF Done:  E(RB3LYP) =  -700.257053315     A.U. after    9 cycles
 SCF Done:  E(RB3LYP) =  -700.257159352     A.U. after    9 cycles
 SCF Done:  E(RB3LYP) =  -700.257184348     A.U. after    8 cycles
 SCF Done:  E(RB3LYP) =  -700.257187722     A.U. after    8 cycles
 SCF Done:  E(RB3LYP) =  -700.257188019     A.U. after    7 cycles
 Optimization completed.
    -- Stationary point found.

                         Standard orientation:
 ---------------------------------------------------------------------
 Center     Atomic      Atomic             Coordinates (Angstroms)
 Number     Number       Type             X           Y           Z
 ---------------------------------------------------------------------
      1         16           0        0.000000   -0.000000    0.149541
      2          8           0        0.000000    1.262225   -0.845258
      3          8           0       -0.000000   -1.262225   -0.845258
      4          8           0        1.266016   -0.088084    0.860812
      5          8           0       -1.266016    0.088084    0.860812
      6          1           0        0.853333    1.343288   -1.320757
      7          1           0       -0.853333   -1.343288   -1.320757
 ---------------------------------------------------------------------

 The electronic state is 1-A.
 Alpha  occ. eigenvalues --  -89.20497 -19.24188 -19.24188 -19.19873 -19.19873
 Alpha  occ. eigenvalues --   -8.22196  -6.18781  -6.18684  -6.18560  -1.21190
 Alpha  occ. eigenvalues --   -1.08729  -1.07256  -1.06048  -0.71095  -0.64004
 Alpha  occ. eigenvalues --   -0.55131  -0.53099  -0.49923  -0.45800  -0.42513
 Alpha  occ. eigenvalues --   -0.40236  -0.40147  -0.36344  -0.36027  -0.34444
 Alpha virt. eigenvalues --   -0.02427   0.02796   0.03701   0.04411   0.04548
 Alpha virt. eigenvalues --    0.05769   0.08500   0.09084   0.14575   0.14676
 Alpha virt. eigenvalues --    0.15802   0.16784   0.16912   0.18245   0.20685

 Mulliken charges:
               1
     1  S    1.656927
     2  O   -0.635292
     3  O   -0.635292
     4  O   -0.653104
     5  O   -0.653104
     6  H    0.459933
     7  H    0.459933
 Sum of Mulliken charges =  -0.00000

 Dipole moment (field-independent basis, Debye):
    X=             -0.0000    Y=             -0.0000    Z=             -5.4933  Tot=              5.4933
 Quadrupole moment (field-independent basis, Debye-Ang):
   XX=            -38.4236   YY=            -33.9480   ZZ=            -33.1074
   XY=              6.1909   XZ=             -0.0000   YZ=             -0.0000

 Normal termination of Gaussian 09 at Tue Sep 17 13:39:18 2024.
