 Gaussian 09, Revision A.02,
 Gaussian 09:  EM64L-G09RevA.02 11-Jun-2009

 -------------------------------------------------------------------
 #p hf/aug-cc-pVDZ opt freq symmetry=(follow,pg=Td) pop=full gfinput
 -------------------------------------------------------------------

 ---------------------------------------------------------------
 methane with imposed symmetry and hf/aug-cc-pVDZ basis function
 ---------------------------------------------------------------
 Symbolic Z-matrix:
 Charge =  0 Multiplicity = 1

 SCF Done:  E(RHF) =  -40.1996321677     A.U. after    8 cycles
 Optimization completed.
    -- Stationary point found.
 Normal termination of Gaussian 09 at Sat Aug 17 15:07:09 2024.

 --------------------------------------------------------------------
 #P Geom=AllCheck Guess=TCheck SCRF=Check GenChk RHF/Aug-CC-pVDZ Freq
 --------------------------------------------------------------------

 methane with imposed symmetry and hf/aug-cc-pVDZ basis function
 ---------------------------------------------------------------
 Redundant internal coordinates taken from checkpoint file:
 /home/ospite/Desktop/MMfP/Project6/CH4/g09/HF/Gau-4959.chk
 Charge =  0 Multiplicity = 1

                         Standard orientation:
 ---------------------------------------------------------------------
 Center     Atomic      Atomic             Coordinates (Angstroms)
 Number     Number       Type             X           Y           Z
 ---------------------------------------------------------------------
      1          6           0        0.000000    0.000000    0.000000
      2          1           0        0.629312    0.629312    0.629312
      3          1           0       -0.629312   -0.629312    0.629312
      4          1           0       -0.629312    0.629312   -0.629312
      5          1           0        0.629312   -0.629312   -0.629312
 ---------------------------------------------------------------------

 SCF Done:  E(RHF) =  -40.1996321677     A.U. after    1 cycles

 The electronic state is 1-A1.
 Alpha  occ. eigenvalues --  -11.21583  -0.94332  -0.54369  -0.54369  -0.54369
 Alpha virt. eigenvalues --    0.03698   0.06371   0.06371   0.06371   0.14619
 Alpha virt. eigenvalues --    0.14619   0.14619   0.17430   0.30037   0.30037
 Alpha virt. eigenvalues --    0.30037   0.30625   0.30625   0.41837   0.44014

 Mulliken atomic charges:
              1
     1  C    0.564520
     2  H   -0.141130
     3  H   -0.141130
     4  H   -0.141130
     5  H   -0.141130
 Sum of Mulliken atomic charges =  -0.00000

 Dipole moment (field-independent basis, Debye):
    X=             -0.0000    Y=             -0.0000    Z=             -0.0000  Tot=              0.0000
 Quadrupole moment (field-independent basis, Debye-Ang):
   XX=             -8.4370   YY=             -8.4370   ZZ=             -8.4370
   XY=              0.0000   XZ=              0.0000   YZ=             -0.0000

  Exact polarizability:  16.019  -0.000  16.019   0.000   0.000  16.019
 Approx polarizability:  13.343   0.000  13.343   0.000  -0.000  13.343

                     1                      2                      3
                    T2                     T2                     T2
 Frequencies --  1424.8749              1424.8749              1424.8749
 Red. masses --     1.1788                 1.1788                 1.1788
 Frc consts  --     1.4101                 1.4101                 1.4101
 IR Inten    --     8.9476                 8.9476                 8.9476
 Raman Activ --     0.0060                 0.0060                 0.0060

                     4                      5                      6
                     E                      E                     A1
 Frequencies --  1638.0384              1638.0384              3147.5098
 Red. masses --     1.0078                 1.0078                 1.0078
 Frc consts  --     1.5932                 1.5932                 5.8826
 IR Inten    --     0.0000                 0.0000                 0.0000
 Raman Activ --     3.9005                 3.9005               222.9125

                     7                      8                      9
                    T2                     T2                     T2
 Frequencies --  3260.3532              3260.3532              3260.3532
 Red. masses --     1.1018                 1.1018                 1.1018
 Frc consts  --     6.9007                 6.9007                 6.9007
 IR Inten    --    38.8678                38.8678                38.8678
 Raman Activ --    52.2685                52.2685                52.2685

 - Thermochemistry -
 -------------------
 Temperature   298.150 Kelvin.  Pressure   1.00000 Atm.
 Atom     1 has atomic number  6 and mass  12.00000

 Molecular mass:    16.03130 amu.
 Principal axes and moments of inertia in atomic units:
                           1         2         3
     Eigenvalues --    11.40262  11.40262  11.40262
           X            0.97014   0.24254   0.00000
           Y           -0.24254   0.97014   0.00000
           Z            0.00000  -0.00000   1.00000
 This molecule is a spherical top.
 Rotational symmetry number 12.
 Rotational temperatures (Kelvin)      7.59596     7.59596     7.59596
 Rotational constants (GHZ):         158.27427   158.27427   158.27427
 Zero-point vibrational energy     122493.2 (Joules/Mol)
                                   29.27659 (Kcal/Mol)
 Vibrational temperatures:   2050.07  2050.07  2050.07  2356.77  2356.77
          (Kelvin)           4528.56  4690.92  4690.92  4690.92

 Zero-point correction=                           0.046655 (Hartree/Particle)
 Thermal correction to Energy=                    0.049513
 Thermal correction to Enthalpy=                  0.050458
 Thermal correction to Gibbs Free Energy=         0.029341
 Sum of electronic and zero-point Energies=            -40.152977
 Sum of electronic and thermal Energies=               -40.150119
 Sum of electronic and thermal Enthalpies=             -40.149175
 Sum of electronic and thermal Free Energies=          -40.170291

                     E (Thermal)             CV                S
                      KCal/Mol        Cal/Mol-Kelvin    Cal/Mol-Kelvin
 Total                   31.070              6.345             44.443
 Electronic               0.000              0.000              0.000
 Translational            0.889              2.981             34.261
 Rotational               0.889              2.981             10.120
 Vibrational             29.293              0.384              0.062

 Optimization completed.
    -- Stationary point found.
 Normal termination of Gaussian 09 at Sat Aug 17 15:07:15 2024.
