 Gaussian 09, Revision A.02,
 Gaussian 09:  EM64L-G09RevA.02 11-Jun-2009

 -------------------------------------------------------------
 #p hf/6-31G opt freq symmetry=(follow,pg=Td) pop=full gfinput
 -------------------------------------------------------------

 ------------------------------------------------------------
 methane with imposed symmetry Td and hf/6-31G basis function
 ------------------------------------------------------------
 Symbolic Z-matrix:
 Charge =  0 Multiplicity = 1

 SCF Done:  E(RHF) =  -40.1803847455     A.U. after    8 cycles
 SCF Done:  E(RHF) =  -40.1805529410     A.U. after    7 cycles
 SCF Done:  E(RHF) =  -40.1805541716     A.U. after    6 cycles
 Optimization completed.
    -- Stationary point found.
 Normal termination of Gaussian 09 at Sat Aug 17 14:37:19 2024.

 --------------------------------------------------------------
 #P Geom=AllCheck Guess=TCheck SCRF=Check GenChk RHF/6-31G Freq
 --------------------------------------------------------------

 methane with imposed symmetry Td and hf/6-31G basis function
 ------------------------------------------------------------
 Redundant internal coordinates taken from checkpoint file:
 /home/ospite/Desktop/MMfP/Project6/CH4/g09/HF/Gau-3735.chk
 Charge =  0 Multiplicity = 1

                         Standard orientation:
 ---------------------------------------------------------------------
 Center     Atomic      Atomic             Coordinates (Angstroms)
 Number     Number       Type             X           Y           Z
 ---------------------------------------------------------------------
      1          6           0        0.000000    0.000000    0.000000
      2          1           0        0.624754    0.624754    0.624754
      3          1           0       -0.624754   -0.624754    0.624754
      4          1           0       -0.624754    0.624754   -0.624754
      5          1           0        0.624754   -0.624754   -0.624754
 ---------------------------------------------------------------------

 SCF Done:  E(RHF) =  -40.1805541716     A.U. after    1 cycles

 The electronic state is 1-A1.
 Alpha  occ. eigenvalues --  -11.20372  -0.94908  -0.54504  -0.54504  -0.54504
 Alpha virt. eigenvalues --    0.25626   0.32542   0.32542   0.32542   0.74043
 Alpha virt. eigenvalues --    0.74043   0.74043   1.23326   1.23326   1.23326
 Alpha virt. eigenvalues --    1.25262   1.32929

 Mulliken atomic charges:
              1
     1  C   -0.621821
     2  H    0.155455
     3  H    0.155455
     4  H    0.155455
     5  H    0.155455
 Sum of Mulliken atomic charges =   0.00000

 Dipole moment (field-independent basis, Debye):
    X=             -0.0000    Y=             -0.0000    Z=              0.0000  Tot=              0.0000
 Quadrupole moment (field-independent basis, Debye-Ang):
   XX=             -8.4141   YY=             -8.4141   ZZ=             -8.4141
   XY=             -0.0000   XZ=              0.0000   YZ=              0.0000

  Exact polarizability:  11.982  -0.000  11.982   0.000   0.000  11.982
 Approx polarizability:   9.086  -0.000   9.086   0.000   0.000   9.086

                     1                      2                      3
                    T2                     T2                     T2
 Frequencies --  1516.9725              1516.9725              1516.9725
 Red. masses --     1.1819                 1.1819                 1.1819
 Frc consts  --     1.6024                 1.6024                 1.6024
 IR Inten    --    21.4555                21.4555                21.4555
 Raman Activ --     2.9998                 2.9998                 2.9998

                     4                      5                      6
                     E                      E                     A1
 Frequencies --  1708.8225              1708.8225              3181.8911
 Red. masses --     1.0078                 1.0078                 1.0078
 Frc consts  --     1.7339                 1.7339                 6.0118
 IR Inten    --     0.0000                 0.0000                 0.0000
 Raman Activ --    39.5168                39.5168               145.7080

                     7                      8                      9
                    T2                     T2                     T2
 Frequencies --  3296.4913              3296.4913              3296.4913
 Red. masses --     1.0992                 1.0992                 1.0992
 Frc consts  --     7.0374                 7.0374                 7.0374
 IR Inten    --    37.8398                37.8398                37.8398
 Raman Activ --    66.7466                66.7466                66.7466

 - Thermochemistry -
 -------------------
 Temperature   298.150 Kelvin.  Pressure   1.00000 Atm.
 Atom     1 has atomic number  6 and mass  12.00000

 Molecular mass:    16.03130 amu.
 Principal axes and moments of inertia in atomic units:
                           1         2         3
     Eigenvalues --    11.23806  11.23806  11.23806
           X            0.62075   0.78087  -0.07007
           Y            0.77594  -0.62470  -0.08759
           Z            0.11217   0.00000   0.99369
 This molecule is a spherical top.
 Rotational symmetry number 12.
 Rotational temperatures (Kelvin)      7.70719     7.70719     7.70719
 Rotational constants (GHZ):         160.59194   160.59194   160.59194
 Zero-point vibrational energy     125846.7 (Joules/Mol)
                                   30.07809 (Kcal/Mol)
 Vibrational temperatures:   2182.58  2182.58  2182.58  2458.61  2458.61
          (Kelvin)           4578.03  4742.91  4742.91  4742.91

 Zero-point correction=                           0.047932 (Hartree/Particle)
 Thermal correction to Energy=                    0.050783
 Thermal correction to Enthalpy=                  0.051727
 Thermal correction to Gibbs Free Energy=         0.030641
 Sum of electronic and zero-point Energies=            -40.132622
 Sum of electronic and thermal Energies=               -40.129771
 Sum of electronic and thermal Enthalpies=             -40.128827
 Sum of electronic and thermal Free Energies=          -40.149914

                     E (Thermal)             CV                S
                      KCal/Mol        Cal/Mol-Kelvin    Cal/Mol-Kelvin
 Total                   31.867              6.245             44.380
 Electronic               0.000              0.000              0.000
 Translational            0.889              2.981             34.261
 Rotational               0.889              2.981             10.076
 Vibrational             30.089              0.283              0.043

 Optimization completed.
    -- Stationary point found.
 Normal termination of Gaussian 09 at Sat Aug 17 14:37:23 2024.
