 Gaussian 09, Revision A.02,
 Gaussian 09:  EM64L-G09RevA.02 11-Jun-2009

 ---------------------------------------------------------------
 #p hf/6-31++G opt freq symmetry=(follow,pg=Td) pop=full gfinput
 ---------------------------------------------------------------

 -----------------------------------------------------------
 methane with imposed symmetry and hf/6-31++G basis function
 -----------------------------------------------------------
 Symbolic Z-matrix:
 Charge =  0 Multiplicity = 1

 SCF Done:  E(RHF) =  -40.1810627105     A.U. after    8 cycles
 SCF Done:  E(RHF) =  -40.1812197253     A.U. after    7 cycles
 SCF Done:  E(RHF) =  -40.1812208246     A.U. after    6 cycles
 Optimization completed.
    -- Stationary point found.
 Normal termination of Gaussian 09 at Sat Aug 17 14:54:14 2024.

 ----------------------------------------------------------------
 #P Geom=AllCheck Guess=TCheck SCRF=Check GenChk RHF/6-31++G Freq
 ----------------------------------------------------------------

 methane with imposed symmetry and hf/6-31++G basis function
 -----------------------------------------------------------
 Redundant internal coordinates taken from checkpoint file:
 /home/ospite/Desktop/MMfP/Project6/CH4/g09/HF/Gau-4408.chk
 Charge =  0 Multiplicity = 1

                         Standard orientation:
 ---------------------------------------------------------------------
 Center     Atomic      Atomic             Coordinates (Angstroms)
 Number     Number       Type             X           Y           Z
 ---------------------------------------------------------------------
      1          6           0        0.000000    0.000000    0.000000
      2          1           0        0.624905    0.624905    0.624905
      3          1           0       -0.624905   -0.624905    0.624905
      4          1           0       -0.624905    0.624905   -0.624905
      5          1           0        0.624905   -0.624905   -0.624905
 ---------------------------------------------------------------------

 SCF Done:  E(RHF) =  -40.1812208246     A.U. after    1 cycles

 The electronic state is 1-A1.
 Alpha  occ. eigenvalues --  -11.20623  -0.95128  -0.54692  -0.54692  -0.54692
 Alpha virt. eigenvalues --    0.04360   0.08182   0.08182   0.08182   0.17003
 Alpha virt. eigenvalues --    0.17003   0.17003   0.21595   0.36039   0.36039
 Alpha virt. eigenvalues --    0.36039   0.48860   0.91767   0.91767   0.91767

 Mulliken atomic charges:
              1
     1  C   -0.707113
     2  H    0.176778
     3  H    0.176778
     4  H    0.176778
     5  H    0.176778
 Sum of Mulliken atomic charges =  -0.00000

 Dipole moment (field-independent basis, Debye):
    X=              0.0000    Y=              0.0000    Z=             -0.0000  Tot=              0.0000
 Quadrupole moment (field-independent basis, Debye-Ang):
   XX=             -8.5353   YY=             -8.5353   ZZ=             -8.5353
   XY=              0.0000   XZ=              0.0000   YZ=              0.0000

  Exact polarizability:  12.840  -0.000  12.840   0.000   0.000  12.840
 Approx polarizability:   9.695  -0.000   9.695   0.000   0.000   9.695

                     1                      2                      3
                    T2                     T2                     T2
 Frequencies --  1511.1919              1511.1919              1511.1919
 Red. masses --     1.1822                 1.1822                 1.1822
 Frc consts  --     1.5907                 1.5907                 1.5907
 IR Inten    --    24.1762                24.1762                24.1762
 Raman Activ --     2.1029                 2.1029                 2.1029

                     4                      5                      6
                     E                      E                     A1
 Frequencies --  1700.0027              1700.0027              3178.0613
 Red. masses --     1.0078                 1.0078                 1.0078
 Frc consts  --     1.7161                 1.7161                 5.9974
 IR Inten    --     0.0000                 0.0000                 0.0000
 Raman Activ --    28.5339                28.5339               182.1585

                     7                      8                      9
                    T2                     T2                     T2
 Frequencies --  3288.1177              3288.1178              3288.1178
 Red. masses --     1.0988                 1.0988                 1.0988
 Frc consts  --     6.9996                 6.9996                 6.9996
 IR Inten    --    42.4551                42.4551                42.4551
 Raman Activ --    76.2454                76.2454                76.2454

 - Thermochemistry -
 -------------------
 Temperature   298.150 Kelvin.  Pressure   1.00000 Atm.
 Atom     1 has atomic number  6 and mass  12.00000

 Molecular mass:    16.03130 amu.
 Principal axes and moments of inertia in atomic units:
                           1         2         3
     Eigenvalues --    11.24347  11.24347  11.24347
           X            0.14557   0.92904   0.34013
           Y            0.07978  -0.35370   0.93195
           Z            0.98613  -0.10853  -0.12560
 This molecule is a spherical top.
 Rotational symmetry number 12.
 Rotational temperatures (Kelvin)      7.70348     7.70348     7.70348
 Rotational constants (GHZ):         160.51462   160.51462   160.51462
 Zero-point vibrational energy     125464.3 (Joules/Mol)
                                   29.98669 (Kcal/Mol)
 Vibrational temperatures:   2174.27  2174.27  2174.27  2445.92  2445.92
          (Kelvin)           4572.52  4730.86  4730.86  4730.86

 Zero-point correction=                           0.047787 (Hartree/Particle)
 Thermal correction to Energy=                    0.050638
 Thermal correction to Enthalpy=                  0.051582
 Thermal correction to Gibbs Free Energy=         0.030494
 Sum of electronic and zero-point Energies=            -40.133434
 Sum of electronic and thermal Energies=               -40.130583
 Sum of electronic and thermal Enthalpies=             -40.129639
 Sum of electronic and thermal Free Energies=          -40.150727

                     E (Thermal)             CV                S
                      KCal/Mol        Cal/Mol-Kelvin    Cal/Mol-Kelvin
 Total                   31.776              6.251             44.383
 Electronic               0.000              0.000              0.000
 Translational            0.889              2.981             34.261
 Rotational               0.889              2.981             10.078
 Vibrational             29.998              0.290              0.044

 Optimization completed.
    -- Stationary point found.
 Normal termination of Gaussian 09 at Sat Aug 17 14:54:16 2024.
