 Gaussian 09, Revision A.02,
 Gaussian 09:  EM64L-G09RevA.02 11-Jun-2009

 ---------------------------------------------------------------
 #p hf/cc-pVTZ opt freq symmetry=(follow,pg=Td) pop=full gfinput
 ---------------------------------------------------------------

 ------------------------------------------------------
 methane with imposed symmetry Td and cc-pVTZ basis set
 ------------------------------------------------------
 Symbolic Z-matrix:
 Charge =  0 Multiplicity = 1

 SCF Done:  E(RHF) =  -40.2133009501     A.U. after    8 cycles
 SCF Done:  E(RHF) =  -40.2134652549     A.U. after    7 cycles
 Optimization completed.
    -- Stationary point found.
 Normal termination of Gaussian 09 at Sun Aug 18 00:45:04 2024.

 ----------------------------------------------------------------
 #P Geom=AllCheck Guess=TCheck SCRF=Check GenChk RHF/CC-pVTZ Freq
 ----------------------------------------------------------------

 methane with imposed symmetry Td and cc-pVTZ basis set
 ------------------------------------------------------
 Redundant internal coordinates taken from checkpoint file:
 /home/ospite/Desktop/MMfP/Project6/CH4/g09/HF/Gau-19782.chk
 Charge =  0 Multiplicity = 1

                         Standard orientation:
 ---------------------------------------------------------------------
 Center     Atomic      Atomic             Coordinates (Angstroms)
 Number     Number       Type             X           Y           Z
 ---------------------------------------------------------------------
      1          6           0        0.000000    0.000000    0.000000
      2          1           0        0.624485    0.624485    0.624485
      3          1           0       -0.624485   -0.624485    0.624485
      4          1           0       -0.624485    0.624485   -0.624485
      5          1           0        0.624485   -0.624485   -0.624485
 ---------------------------------------------------------------------

 SCF Done:  E(RHF) =  -40.2134652549     A.U. after    1 cycles

 The electronic state is 1-A1.
 Alpha  occ. eigenvalues --  -11.20306  -0.94589  -0.54669  -0.54669  -0.54669
 Alpha virt. eigenvalues --    0.14395   0.23013   0.23013   0.23013   0.36392
 Alpha virt. eigenvalues --    0.36392   0.36392   0.64454   0.65068   0.65068
 Alpha virt. eigenvalues --    0.65068   0.68593   0.68593   0.76051   1.07962

 Mulliken atomic charges:
              1
     1  C   -0.370507
     2  H    0.092627
     3  H    0.092627
     4  H    0.092627
     5  H    0.092627
 Sum of Mulliken atomic charges =   0.00000

 Dipole moment (field-independent basis, Debye):
    X=              0.0000    Y=              0.0000    Z=             -0.0000  Tot=              0.0000
 Quadrupole moment (field-independent basis, Debye-Ang):
   XX=             -8.4015   YY=             -8.4015   ZZ=             -8.4015
   XY=             -0.0000   XZ=              0.0000   YZ=              0.0000

  Exact polarizability:  14.522  -0.000  14.522  -0.000   0.000  14.522
 Approx polarizability:  12.155  -0.000  12.155   0.000   0.000  12.155

                     1                      2                      3
                    T2                     T2                     T2
 Frequencies --  1453.0549              1453.0549              1453.0549
 Red. masses --     1.1793                 1.1793                 1.1793
 Frc consts  --     1.4670                 1.4670                 1.4670
 IR Inten    --     9.4106                 9.4106                 9.4106
 Raman Activ --     0.2087                 0.2087                 0.2087

                     4                      5                      6
                     E                      E                     A1
 Frequencies --  1666.0398              1666.0398              3151.8729
 Red. masses --     1.0078                 1.0078                 1.0078
 Frc consts  --     1.6482                 1.6482                 5.8989
 IR Inten    --     0.0000                 0.0000                 0.0000
 Raman Activ --    11.4032                11.4032               184.2273

                     7                      8                      9
                    T2                     T2                     T2
 Frequencies --  3250.6475              3250.6475              3250.6475
 Red. masses --     1.1014                 1.1014                 1.1014
 Frc consts  --     6.8569                 6.8569                 6.8569
 IR Inten    --    39.4525                39.4525                39.4525
 Raman Activ --    60.7683                60.7683                60.7683

 - Thermochemistry -
 -------------------
 Temperature   298.150 Kelvin.  Pressure   1.00000 Atm.
 Atom     1 has atomic number  6 and mass  12.00000

 Molecular mass:    16.03130 amu.
 Principal axes and moments of inertia in atomic units:
                           1         2         3
     Eigenvalues --    11.22836  11.22836  11.22836
           X            0.19425   0.98058  -0.02698
           Y            0.97126  -0.19612  -0.13491
           Z            0.13759   0.00000   0.99049
 This molecule is a spherical top.
 Rotational symmetry number 12.
 Rotational temperatures (Kelvin)      7.71384     7.71384     7.71384
 Rotational constants (GHZ):         160.73059   160.73059   160.73059
 Zero-point vibrational energy     123185.8 (Joules/Mol)
                                   29.44212 (Kcal/Mol)
 Vibrational temperatures:   2090.62  2090.62  2090.62  2397.06  2397.06
          (Kelvin)           4534.84  4676.95  4676.95  4676.95

 Zero-point correction=                           0.046919 (Hartree/Particle)
 Thermal correction to Energy=                    0.049774
 Thermal correction to Enthalpy=                  0.050719
 Thermal correction to Gibbs Free Energy=         0.029628
 Sum of electronic and zero-point Energies=            -40.166546
 Sum of electronic and thermal Energies=               -40.163691
 Sum of electronic and thermal Enthalpies=             -40.162747
 Sum of electronic and thermal Free Energies=          -40.183838

                     E (Thermal)             CV                S
                      KCal/Mol        Cal/Mol-Kelvin    Cal/Mol-Kelvin
 Total                   31.234              6.309             44.390
 Electronic               0.000              0.000              0.000
 Translational            0.889              2.981             34.261
 Rotational               0.889              2.981             10.074
 Vibrational             29.456              0.348              0.055

 Optimization completed.
    -- Stationary point found.
 Normal termination of Gaussian 09 at Sun Aug 18 00:45:36 2024.
