 Gaussian 09, Revision A.02,
 Gaussian 09:  EM64L-G09RevA.02 11-Jun-2009

 ---------------------------------------------------------------
 #p hf/cc-pVDZ opt freq symmetry=(follow,pg=Td) pop=full gfinput
 ---------------------------------------------------------------

 ------------------------------------------------------
 methane with imposed symmetry Td and cc-pVDZ basis set
 ------------------------------------------------------
 Symbolic Z-matrix:
 Charge =  0 Multiplicity = 1

 SCF Done:  E(RHF) =  -40.1987102928     A.U. after    8 cycles
 SCF Done:  E(RHF) =  -40.1987119611     A.U. after    6 cycles
 Optimization completed.
    -- Stationary point found.
 Normal termination of Gaussian 09 at Sun Aug 18 00:44:27 2024.

 ----------------------------------------------------------------
 #P Geom=AllCheck Guess=TCheck SCRF=Check GenChk RHF/CC-pVDZ Freq
 ----------------------------------------------------------------

 methane with imposed symmetry Td and cc-pVDZ basis set
 ------------------------------------------------------
 Redundant internal coordinates taken from checkpoint file:
 /home/ospite/Desktop/MMfP/Project6/CH4/g09/HF/Gau-19757.chk
 Charge =  0 Multiplicity = 1

                         Standard orientation:
 ---------------------------------------------------------------------
 Center     Atomic      Atomic             Coordinates (Angstroms)
 Number     Number       Type             X           Y           Z
 ---------------------------------------------------------------------
      1          6           0        0.000000    0.000000    0.000000
      2          1           0        0.629810    0.629810    0.629810
      3          1           0       -0.629810   -0.629810    0.629810
      4          1           0       -0.629810    0.629810   -0.629810
      5          1           0        0.629810   -0.629810   -0.629810
 ---------------------------------------------------------------------

 SCF Done:  E(RHF) =  -40.1987119611     A.U. after    1 cycles

 The electronic state is 1-A1.
 Alpha  occ. eigenvalues --  -11.21661  -0.94165  -0.54235  -0.54235  -0.54235
 Alpha virt. eigenvalues --    0.19292   0.27389   0.27389   0.27389   0.58951
 Alpha virt. eigenvalues --    0.58951   0.58951   0.88872   0.88872   0.88872
 Alpha virt. eigenvalues --    0.93262   1.13141   1.13141   1.25628   1.68517

 Mulliken atomic charges:
              1
     1  C   -0.143603
     2  H    0.035901
     3  H    0.035901
     4  H    0.035901
     5  H    0.035901
 Sum of Mulliken atomic charges =  -0.00000

 Dipole moment (field-independent basis, Debye):
    X=              0.0000    Y=              0.0000    Z=              0.0000  Tot=              0.0000
 Quadrupole moment (field-independent basis, Debye-Ang):
   XX=             -8.3595   YY=             -8.3595   ZZ=             -8.3595
   XY=              0.0000   XZ=              0.0000   YZ=              0.0000

  Exact polarizability:  13.010   0.000  13.010   0.000   0.000  13.010
 Approx polarizability:  10.556   0.000  10.556   0.000   0.000  10.556

                     1                      2                      3
                    T2                     T2                     T2
 Frequencies --  1433.4403              1433.4403              1433.4403
 Red. masses --     1.1781                 1.1781                 1.1781
 Frc consts  --     1.4262                 1.4262                 1.4262
 IR Inten    --     9.8894                 9.8894                 9.8894
 Raman Activ --     0.8527                 0.8527                 0.8527

                     4                      5                      6
                     E                      E                     A1
 Frequencies --  1647.9205              1647.9205              3164.1478
 Red. masses --     1.0078                 1.0078                 1.0078
 Frc consts  --     1.6125                 1.6125                 5.9450
 IR Inten    --     0.0000                 0.0000                 0.0000
 Raman Activ --    20.5035                20.5035               164.6515

                     7                      8                      9
                    T2                     T2                     T2
 Frequencies --  3284.8872              3284.8872              3284.8872
 Red. masses --     1.1025                 1.1025                 1.1025
 Frc consts  --     7.0090                 7.0090                 7.0090
 IR Inten    --    34.4168                34.4168                34.4168
 Raman Activ --    73.3086                73.3086                73.3086

 - Thermochemistry -
 -------------------
 Temperature   298.150 Kelvin.  Pressure   1.00000 Atm.
 Atom     1 has atomic number  6 and mass  12.00000

 Molecular mass:    16.03130 amu.
 Principal axes and moments of inertia in atomic units:
                           1         2         3
     Eigenvalues --    11.42069  11.42069  11.42069
           X            0.13492   0.95273  -0.27220
           Y            0.13062   0.25522   0.95802
           Z            0.98221  -0.16481  -0.09001
 This molecule is a spherical top.
 Rotational symmetry number 12.
 Rotational temperatures (Kelvin)      7.58394     7.58394     7.58394
 Rotational constants (GHZ):         158.02378   158.02378   158.02378
 Zero-point vibrational energy     123304.9 (Joules/Mol)
                                   29.47058 (Kcal/Mol)
 Vibrational temperatures:   2062.40  2062.40  2062.40  2370.99  2370.99
          (Kelvin)           4552.50  4726.21  4726.21  4726.21

 Zero-point correction=                           0.046964 (Hartree/Particle)
 Thermal correction to Energy=                    0.049822
 Thermal correction to Enthalpy=                  0.050766
 Thermal correction to Gibbs Free Energy=         0.029649
 Sum of electronic and zero-point Energies=            -40.151748
 Sum of electronic and thermal Energies=               -40.148890
 Sum of electronic and thermal Enthalpies=             -40.147946
 Sum of electronic and thermal Free Energies=          -40.169063

                     E (Thermal)             CV                S
                      KCal/Mol        Cal/Mol-Kelvin    Cal/Mol-Kelvin
 Total                   31.264              6.334             44.445
 Electronic               0.000              0.000              0.000
 Translational            0.889              2.981             34.261
 Rotational               0.889              2.981             10.124
 Vibrational             29.486              0.372              0.059

 Optimization completed.
    -- Stationary point found.
 Normal termination of Gaussian 09 at Sun Aug 18 00:44:33 2024.
