 Gaussian 09, Revision A.02,
 Gaussian 09:  EM64L-G09RevA.02 11-Jun-2009

 --------------------------------------------------------------
 #p hf/6-31+G opt freq symmetry=(follow,pg=Td) pop=full gfinput
 --------------------------------------------------------------

 ----------------------------------------------------------
 methane with imposed symmetry and hf/6-31+G basis function
 ----------------------------------------------------------
 Symbolic Z-matrix:
 Charge =  0 Multiplicity = 1

 SCF Done:  E(RHF) =  -40.1810326420     A.U. after    8 cycles
 SCF Done:  E(RHF) =  -40.1811912119     A.U. after    7 cycles
 SCF Done:  E(RHF) =  -40.1811923326     A.U. after    6 cycles
 Optimization completed.
    -- Stationary point found.
 Normal termination of Gaussian 09 at Sat Aug 17 14:54:05 2024.

 ---------------------------------------------------------------
 #P Geom=AllCheck Guess=TCheck SCRF=Check GenChk RHF/6-31+G Freq
 ---------------------------------------------------------------

 methane with imposed symmetry and hf/6-31+G basis function
 ----------------------------------------------------------
 Redundant internal coordinates taken from checkpoint file:
 /home/ospite/Desktop/MMfP/Project6/CH4/g09/HF/Gau-4392.chk
 Charge =  0 Multiplicity = 1

                         Standard orientation:
 ---------------------------------------------------------------------
 Center     Atomic      Atomic             Coordinates (Angstroms)
 Number     Number       Type             X           Y           Z
 ---------------------------------------------------------------------
      1          6           0        0.000000    0.000000    0.000000
      2          1           0        0.624884    0.624884    0.624884
      3          1           0       -0.624884   -0.624884    0.624884
      4          1           0       -0.624884    0.624884   -0.624884
      5          1           0        0.624884   -0.624884   -0.624884
 ---------------------------------------------------------------------

 SCF Done:  E(RHF) =  -40.1811923326     A.U. after    1 cycles

 The electronic state is 1-A1.
 Alpha  occ. eigenvalues --  -11.20608  -0.95132  -0.54696  -0.54696  -0.54696
 Alpha virt. eigenvalues --    0.09311   0.12267   0.12267   0.12267   0.33239
 Alpha virt. eigenvalues --    0.33239   0.33239   0.41598   0.86342   0.86342
 Alpha virt. eigenvalues --    0.86342   1.27753   1.27753   1.27753   1.32493

 Mulliken atomic charges:
              1
     1  C   -0.716016
     2  H    0.179004
     3  H    0.179004
     4  H    0.179004
     5  H    0.179004
 Sum of Mulliken atomic charges =  -0.00000

 Dipole moment (field-independent basis, Debye):
    X=             -0.0000    Y=             -0.0000    Z=              0.0000  Tot=              0.0000
 Quadrupole moment (field-independent basis, Debye-Ang):
   XX=             -8.5314   YY=             -8.5314   ZZ=             -8.5314
   XY=              0.0000   XZ=             -0.0000   YZ=             -0.0000

  Exact polarizability:  12.537   0.000  12.537  -0.000  -0.000  12.537
 Approx polarizability:   9.515   0.000   9.515  -0.000  -0.000   9.515

                     1                      2                      3
                    T2                     T2                     T2
 Frequencies --  1511.4233              1511.4233              1511.4233
 Red. masses --     1.1822                 1.1822                 1.1822
 Frc consts  --     1.5912                 1.5912                 1.5912
 IR Inten    --    24.2756                24.2756                24.2756
 Raman Activ --     1.9077                 1.9077                 1.9077

                     4                      5                      6
                     E                      E                     A1
 Frequencies --  1700.8359              1700.8359              3178.7846
 Red. masses --     1.0078                 1.0078                 1.0078
 Frc consts  --     1.7178                 1.7178                 6.0001
 IR Inten    --     0.0000                 0.0000                 0.0000
 Raman Activ --    26.3215                26.3215               164.8100

                     7                      8                      9
                    T2                     T2                     T2
 Frequencies --  3289.1742              3289.1742              3289.1742
 Red. masses --     1.0988                 1.0988                 1.0988
 Frc consts  --     7.0041                 7.0041                 7.0041
 IR Inten    --    38.9005                38.9005                38.9005
 Raman Activ --    72.3542                72.3542                72.3542

 - Thermochemistry -
 -------------------
 Temperature   298.150 Kelvin.  Pressure   1.00000 Atm.
 Atom     1 has atomic number  6 and mass  12.00000

 Molecular mass:    16.03130 amu.
 Principal axes and moments of inertia in atomic units:
                           1         2         3
     Eigenvalues --    11.24271  11.24271  11.24271
           X            0.42847   0.24538   0.86960
           Y            0.75462   0.43215  -0.49376
           Z           -0.49696   0.86778   0.00000
 This molecule is a spherical top.
 Rotational symmetry number 12.
 Rotational temperatures (Kelvin)      7.70400     7.70400     7.70400
 Rotational constants (GHZ):         160.52543   160.52543   160.52543
 Zero-point vibrational energy     125501.7 (Joules/Mol)
                                   29.99563 (Kcal/Mol)
 Vibrational temperatures:   2174.60  2174.60  2174.60  2447.12  2447.12
          (Kelvin)           4573.56  4732.38  4732.38  4732.38

 Zero-point correction=                           0.047801 (Hartree/Particle)
 Thermal correction to Energy=                    0.050652
 Thermal correction to Enthalpy=                  0.051596
 Thermal correction to Gibbs Free Energy=         0.030509
 Sum of electronic and zero-point Energies=            -40.133391
 Sum of electronic and thermal Energies=               -40.130540
 Sum of electronic and thermal Enthalpies=             -40.129596
 Sum of electronic and thermal Free Energies=          -40.150684

                     E (Thermal)             CV                S
                      KCal/Mol        Cal/Mol-Kelvin    Cal/Mol-Kelvin
 Total                   31.785              6.251             44.383
 Electronic               0.000              0.000              0.000
 Translational            0.889              2.981             34.261
 Rotational               0.889              2.981             10.078
 Vibrational             30.007              0.289              0.044

 Optimization completed.
    -- Stationary point found.
 Normal termination of Gaussian 09 at Sat Aug 17 14:54:07 2024.
