 Gaussian 09, Revision A.02,
 Gaussian 09:  EM64L-G09RevA.02 11-Jun-2009

 ---------------------------------------------------------------
 #p hf/cc-pVQZ opt freq symmetry=(follow,pg=Td) pop=full gfinput
 ---------------------------------------------------------------

 ------------------------------------------------------
 methane with imposed symmetry Td and cc-pVQZ basis set
 ------------------------------------------------------
 Symbolic Z-matrix:
 Charge =  0 Multiplicity = 1

 SCF Done:  E(RHF) =  -40.2161107672     A.U. after    9 cycles
 SCF Done:  E(RHF) =  -40.2163008772     A.U. after    7 cycles
 Optimization completed.
    -- Stationary point found.
 Normal termination of Gaussian 09 at Sun Aug 18 13:01:57 2024.

 ----------------------------------------------------------------
 #P Geom=AllCheck Guess=TCheck SCRF=Check GenChk RHF/CC-pVQZ Freq
 ----------------------------------------------------------------

 methane with imposed symmetry Td and cc-pVQZ basis set
 ------------------------------------------------------
 Redundant internal coordinates taken from checkpoint file:
 /home/ospite/Desktop/MMfP/Project6/CH4/g09/HF/Gau-5667.chk
 Charge =  0 Multiplicity = 1

                         Standard orientation:
 ---------------------------------------------------------------------
 Center     Atomic      Atomic             Coordinates (Angstroms)
 Number     Number       Type             X           Y           Z
 ---------------------------------------------------------------------
      1          6           0        0.000000    0.000000    0.000000
      2          1           0        0.624125    0.624125    0.624125
      3          1           0       -0.624125   -0.624125    0.624125
      4          1           0       -0.624125    0.624125   -0.624125
      5          1           0        0.624125   -0.624125   -0.624125
 ---------------------------------------------------------------------

 SCF Done:  E(RHF) =  -40.2163008772     A.U. after    1 cycles

 The electronic state is 1-A1.
 Alpha  occ. eigenvalues --  -11.20182  -0.94604  -0.54703  -0.54703  -0.54703
 Alpha virt. eigenvalues --    0.11568   0.20009   0.20009   0.20009   0.27691
 Alpha virt. eigenvalues --    0.27691   0.27691   0.48576   0.53603   0.53603
 Alpha virt. eigenvalues --    0.53603   0.54183   0.54183   0.63361   0.82948

 Mulliken atomic charges:
              1
     1  C   -0.268139
     2  H    0.067035
     3  H    0.067035
     4  H    0.067035
     5  H    0.067035
 Sum of Mulliken atomic charges =   0.00000

 Dipole moment (field-independent basis, Debye):
    X=              0.0000    Y=              0.0000    Z=              0.0000  Tot=              0.0000
 Quadrupole moment (field-independent basis, Debye-Ang):
   XX=             -8.3897   YY=             -8.3897   ZZ=             -8.3897
   XY=              0.0000   XZ=              0.0000   YZ=              0.0000

  Exact polarizability:  15.114   0.000  15.114   0.000   0.000  15.114
 Approx polarizability:  12.666  -0.000  12.666  -0.000   0.000  12.666

 Error termination via Lnk1e in /programs/64bit/g09/g09-gfortran/bin/l701.exe at Sun Aug 18 13:12:03 2024.
