 Gaussian 09, Revision D.01,
 Gaussian 09:  EM64L-G09RevD.01 24-Apr-2013

 ----------------------------------------------------------------------
 #p wb97xd/6-31g(d,p) opt=(Z-matrix,ts,calcfc) nosym freq temperature=3
 00 pop=full gfinput
 ----------------------------------------------------------------------

 ------------------
 nh3+h to nh2+h2 ts
 ------------------
 Symbolic Z-matrix:
 Charge =  0 Multiplicity = 2

 SCF Done:  E(UwB97XD) =  -57.0211938742     A.U. after   18 cycles
 SCF Done:  E(UwB97XD) =  -57.0211047791     A.U. after   17 cycles
 SCF Done:  E(UwB97XD) =  -57.0211024876     A.U. after   11 cycles
 SCF Done:  E(UwB97XD) =  -57.0211025179     A.U. after   10 cycles
 Optimization completed.
    -- Stationary point found.
 Normal termination of Gaussian 09 at Sun Sep 15 21:37:18 2024.

 ----------------------------------------------------------------------
 #P Geom=AllCheck Guess=TCheck SCRF=Check GenChk UwB97XD/6-31G(d,p) Fre
 q
 ----------------------------------------------------------------------

 Structure from the checkpoint file:  "ts.chk"
 ------------------
 nh3+h to nh2+h2 ts
 ------------------
 Charge =  0 Multiplicity = 2

                          Input orientation:
 ---------------------------------------------------------------------
 Center     Atomic      Atomic             Coordinates (Angstroms)
 Number     Number       Type             X           Y           Z
 ---------------------------------------------------------------------
      1          7           0        0.000000    0.000000    0.000000
      2          1           0        0.000000    0.000000    1.026248
      3          1           0        1.273956    0.000000   -0.229141
      4          1           0       -0.227880    0.971190   -0.240956
      5          1           0        2.127108    0.276147   -0.169049
 ---------------------------------------------------------------------

 SCF Done:  E(UwB97XD) =  -57.0211025179     A.U. after    1 cycles

 Alpha  occ. eigenvalues --  -14.47317  -0.96723  -0.57632  -0.56162  -0.40688
 Alpha  occ. eigenvalues --   -0.33409
 Alpha virt. eigenvalues --    0.16905   0.23646   0.28439   0.72454   0.74588
 Alpha virt. eigenvalues --    0.77879   0.82485   0.94465   0.96642   1.02319
 Alpha virt. eigenvalues --    1.23942   1.46855   1.49698   1.74301   1.85019

  Beta  occ. eigenvalues --  -14.46104  -0.92885  -0.54970  -0.52728  -0.37409
  Beta virt. eigenvalues --   -0.03286   0.17820   0.24230   0.30780   0.73822
  Beta virt. eigenvalues --    0.74687   0.82304   0.86007   0.95355   0.98218
  Beta virt. eigenvalues --    1.04278   1.25582   1.49799   1.50887   1.77887

 Mulliken charges and spin densities:
               1          2
     1  N   -0.602554   0.682659
     2  H    0.265861  -0.019709
     3  H    0.145150  -0.088488
     4  H    0.265745  -0.019776
     5  H   -0.074203   0.445313
 Sum of Mulliken charges =  -0.00000   1.00000

 Dipole moment (field-independent basis, Debye):
    X=             -0.2267    Y=              1.3902    Z=              1.1059  Tot=              1.7908
 Quadrupole moment (field-independent basis, Debye-Ang):
   XX=             -9.8975   YY=             -8.3850   ZZ=             -7.9060
   XY=             -0.6178   XZ=             -0.0337   YZ=             -0.6080

  Exact polarizability:  29.030   1.932   9.457  -1.851  -1.072   9.920
 Approx polarizability:  23.706   1.904   9.195  -0.983  -0.975   9.459

 ******    1 imaginary frequencies (negative Signs) ******

                      1                      2                      3
                      A                      A                      A
 Frequencies --  -1365.6040               695.8207               714.1621
 Red. masses --      1.0901                 1.0139                 1.0304
 Frc consts  --      1.1977                 0.2892                 0.3096
 IR Inten    --   71.78                  8.889                  42.64

                      4                      5                      6
                      A                      A                      A
 Frequencies --   1125.8464              1298.9523              1587.7669
 Red. masses --      1.1209                 1.0398                 1.0770
 Frc consts  --      0.8371                 1.0337                 1.5997
 IR Inten    --   207.8                  12.15                  22.96

                      7                      8                      9
                      A                      A                      A
 Frequencies --   1973.9925              3442.4375              3547.7831
 Red. masses --      1.0480                 1.0501                 1.0898
 Frc consts  --      2.4061                 7.3320                 8.0819
 IR Inten    --   5.845                  5.130                 0.3263

 - Thermochemistry -
 -------------------
 Temperature   300.000 Kelvin.  Pressure   1.00000 Atm.
 Atom     1 has atomic number  7 and mass  14.00307

 Molecular mass:    18.03437 amu.
 Principal axes and moments of inertia in atomic units:
                           1         2         3
     Eigenvalues --     7.24067  23.22364  25.34381
           X            0.98837   0.14070   0.05763
           Y            0.03918  -0.60191   0.79761
           Z           -0.14691   0.78607   0.60042
 This molecule is an asymmetric top.
 Rotational symmetry number  1.
 Rotational temperatures (Kelvin)     11.96213     3.72955     3.41755
 Rotational constants (GHZ):         249.25074    77.71138    71.21034
    1 imaginary frequencies ignored.
 Zero-point vibrational energy      86051.9 (Joules/Mol)
                                   20.56691 (Kcal/Mol)
 Vibrational temperatures:   1001.13  1027.52  1619.84  1868.90  2284.44
          (Kelvin)           2840.13  4952.89  5104.46

 Zero-point correction=                           0.032775 (Hartree/Particle)
 Thermal correction to Energy=                    0.035891
 Thermal correction to Enthalpy=                  0.036841
 Thermal correction to Gibbs Free Energy=         0.011573
 Sum of electronic and zero-point Energies=            -56.988327
 Sum of electronic and thermal Energies=               -56.985211
 Sum of electronic and thermal Enthalpies=             -56.984261
 Sum of electronic and thermal Free Energies=          -57.009529

                     E (Thermal)             CV                S
                      KCal/Mol        Cal/Mol-Kelvin    Cal/Mol-Kelvin
 Total                   22.522              8.105             52.853
 Electronic               0.000              0.000              1.377
 Translational            0.894              2.981             34.643
 Rotational               0.894              2.981             16.125
 Vibrational             20.734              2.144              0.707

 Optimization completed.
    -- Stationary point found.
 Normal termination of Gaussian 09 at Sun Sep 15 21:37:22 2024.
