 Gaussian 09, Revision D.01,
 Gaussian 09:  EM64L-G09RevD.01 24-Apr-2013

 ----------------------------------------------------------------------
 #p wb97xd/6-31g(d,p) opt=(Z-matrix,ts,calcfc) nosym freq temperature=3
 00 pop=full gfinput
 ----------------------------------------------------------------------

 ------------------
 nh3+h to nh2+h2 ts
 ------------------
 Symbolic Z-matrix:
 Charge =  0 Multiplicity = 2

 SCF Done:  E(UwB97XD) =  -57.0223763663     A.U. after   17 cycles
 SCF Done:  E(UwB97XD) =  -57.0204149364     A.U. after   18 cycles
 SCF Done:  E(UwB97XD) =  -57.0215015030     A.U. after   18 cycles
 SCF Done:  E(UwB97XD) =  -57.0210710141     A.U. after   18 cycles
 SCF Done:  E(UwB97XD) =  -57.0211342555     A.U. after   17 cycles
 SCF Done:  E(UwB97XD) =  -57.0211018460     A.U. after   16 cycles
 SCF Done:  E(UwB97XD) =  -57.0211025070     A.U. after   10 cycles
 Optimization completed.
    -- Stationary point found.
 Normal termination of Gaussian 09 at Sat Sep 14 12:16:08 2024.

 ----------------------------------------------------------------------
 #P Geom=AllCheck Guess=TCheck SCRF=Check GenChk UwB97XD/6-31G(d,p) Fre
 q
 ----------------------------------------------------------------------

 Structure from the checkpoint file:  "ts.chk"
 ------------------
 nh3+h to nh2+h2 ts
 ------------------
 Charge =  0 Multiplicity = 2

                          Input orientation:
 ---------------------------------------------------------------------
 Center     Atomic      Atomic             Coordinates (Angstroms)
 Number     Number       Type             X           Y           Z
 ---------------------------------------------------------------------
      1          7           0        0.000000    0.000000    0.000000
      2          1           0        0.000000    0.000000    1.026250
      3          1           0        1.274276    0.000000   -0.228886
      4          1           0       -0.227623   -0.971228   -0.241060
      5          1           0        2.127082   -0.276438   -0.168103
 ---------------------------------------------------------------------

 SCF Done:  E(UwB97XD) =  -57.0211025070     A.U. after    1 cycles

 Alpha  occ. eigenvalues --  -14.47318  -0.96723  -0.57629  -0.56164  -0.40690
 Alpha  occ. eigenvalues --   -0.33409
 Alpha virt. eigenvalues --    0.16905   0.23646   0.28431   0.72448   0.74590
 Alpha virt. eigenvalues --    0.77879   0.82485   0.94465   0.96634   1.02323
 Alpha virt. eigenvalues --    1.23940   1.46854   1.49707   1.74281   1.85010

  Beta  occ. eigenvalues --  -14.46105  -0.92883  -0.54971  -0.52724  -0.37412
  Beta virt. eigenvalues --   -0.03283   0.17820   0.24230   0.30771   0.73816
  Beta virt. eigenvalues --    0.74689   0.82307   0.86005   0.95355   0.98211
  Beta virt. eigenvalues --    1.04282   1.25579   1.49800   1.50898   1.77869

 Mulliken charges and spin densities:
               1          2
     1  N   -0.602473   0.683050
     2  H    0.265869  -0.019723
     3  H    0.145084  -0.088459
     4  H    0.265753  -0.019791
     5  H   -0.074233   0.444923
 Sum of Mulliken charges =  -0.00000   1.00000

 Dipole moment (field-independent basis, Debye):
    X=             -0.2269    Y=             -1.3902    Z=              1.1057  Tot=              1.7907
 Quadrupole moment (field-independent basis, Debye-Ang):
   XX=             -9.8978   YY=             -8.3848   ZZ=             -7.9059
   XY=              0.6173   XZ=             -0.0339   YZ=              0.6083

  Exact polarizability:  29.021  -1.935   9.459  -1.840   1.070   9.919
 Approx polarizability:  23.699  -1.907   9.198  -0.973   0.973   9.459

 ******    1 imaginary frequencies (negative Signs) ******

                      1                      2                      3
                      A                      A                      A
 Frequencies --  -1364.4780               695.9799               714.3428
 Red. masses --      1.0902                 1.0139                 1.0304
 Frc consts  --      1.1959                 0.2894                 0.3098
 IR Inten    --   71.37                  8.963                  42.72

                      4                      5                      6
                      A                      A                      A
 Frequencies --   1125.8168              1298.6289              1587.6718
 Red. masses --      1.1208                 1.0398                 1.0770
 Frc consts  --      0.8370                 1.0332                 1.5996
 IR Inten    --   207.5                  12.15                  22.94

                      7                      8                      9
                      A                      A                      A
 Frequencies --   1975.6939              3442.3812              3547.7903
 Red. masses --      1.0479                 1.0501                 1.0898
 Frc consts  --      2.4100                 7.3317                 8.0820
 IR Inten    --   5.864                  5.127                 0.3257

 - Thermochemistry -
 -------------------
 Temperature   300.000 Kelvin.  Pressure   1.00000 Atm.
 Atom     1 has atomic number  7 and mass  14.00307

 Molecular mass:    18.03437 amu.
 Principal axes and moments of inertia in atomic units:
                           1         2         3
     Eigenvalues --     7.24176  23.22378  25.34365
           X            0.98843   0.14044  -0.05726
           Y           -0.03931   0.60187   0.79763
           Z           -0.14648   0.78615  -0.60043
 This molecule is an asymmetric top.
 Rotational symmetry number  1.
 Rotational temperatures (Kelvin)     11.96032     3.72953     3.41757
 Rotational constants (GHZ):         249.21298    77.71093    71.21078
    1 imaginary frequencies ignored.
 Zero-point vibrational energy      86061.2 (Joules/Mol)
                                   20.56912 (Kcal/Mol)
 Vibrational temperatures:   1001.36  1027.78  1619.80  1868.43  2284.30
          (Kelvin)           2842.58  4952.81  5104.47

 Zero-point correction=                           0.032779 (Hartree/Particle)
 Thermal correction to Energy=                    0.035895
 Thermal correction to Enthalpy=                  0.036845
 Thermal correction to Gibbs Free Energy=         0.011577
 Sum of electronic and zero-point Energies=            -56.988324
 Sum of electronic and thermal Energies=               -56.985208
 Sum of electronic and thermal Enthalpies=             -56.984258
 Sum of electronic and thermal Free Energies=          -57.009526

                     E (Thermal)             CV                S
                      KCal/Mol        Cal/Mol-Kelvin    Cal/Mol-Kelvin
 Total                   22.524              8.105             52.853
 Electronic               0.000              0.000              1.377
 Translational            0.894              2.981             34.643
 Rotational               0.894              2.981             16.125
 Vibrational             20.736              2.143              0.707

 Optimization completed.
    -- Stationary point found.
 Normal termination of Gaussian 09 at Sat Sep 14 12:16:11 2024.
