 Gaussian 09, Revision A.02,
 Gaussian 09:  EM64L-G09RevA.02 11-Jun-2009

 ----------------------------------------------
 #p B3LYP/6-31+g(d,p) opt freq pop=full gfinput
 ----------------------------------------------

 ------------------
 molecular_hydrogen
 ------------------
 Symbolic Z-matrix:
 Charge =  0 Multiplicity = 1

 SCF Done:  E(RB3LYP) =  -1.17717408354     A.U. after    7 cycles
 SCF Done:  E(RB3LYP) =  -1.17853776597     A.U. after    6 cycles
 SCF Done:  E(RB3LYP) =  -1.17853933611     A.U. after    4 cycles
 Optimization completed.
    -- Stationary point found.
 Normal termination of Gaussian 09 at Tue Aug 13 17:19:14 2024.

 ----------------------------------------------------------------------
 #P Geom=AllCheck Guess=TCheck SCRF=Check GenChk RB3LYP/6-31+G(d,p) Fre
 q
 ----------------------------------------------------------------------

 molecular_hydrogen
 ------------------
 Redundant internal coordinates taken from checkpoint file:
 /home/ospite/Desktop/MMfP/Project3/H/Gau-5196.chk
 Charge =  0 Multiplicity = 1

                         Standard orientation:
 ---------------------------------------------------------------------
 Center     Atomic      Atomic             Coordinates (Angstroms)
 Number     Number       Type             X           Y           Z
 ---------------------------------------------------------------------
      1          1           0        0.000000    0.000000    0.371399
      2          1           0        0.000000    0.000000   -0.371399
 ---------------------------------------------------------------------

 SCF Done:  E(RB3LYP) =  -1.17853933611     A.U. after    1 cycles

 The electronic state is 1-SGG.
 Alpha  occ. eigenvalues --   -0.43158
 Alpha virt. eigenvalues --    0.10096   0.57701   1.03609   1.67471   1.67471
 Alpha virt. eigenvalues --    2.37887   2.61566   2.61566   4.15284

 Mulliken atomic charges:
              1
     1  H   -0.000000
     2  H   -0.000000
 Sum of Mulliken atomic charges =  -0.00000

 Dipole moment (field-independent basis, Debye):
    X=             -0.0000    Y=              0.0000    Z=             -0.0000  Tot=              0.0000
 Quadrupole moment (field-independent basis, Debye-Ang):
   XX=             -2.0291   YY=             -2.0291   ZZ=             -1.5076
   XY=             -0.0000   XZ=             -0.0000   YZ=              0.0000

  Exact polarizability:   0.582   0.000   0.582  -0.000  -0.000   6.366
 Approx polarizability:   0.599  -0.000   0.599  -0.000  -0.000   7.764

                     1
                    SGG
 Frequencies --  4465.5769
 Red. masses --     1.0078
 Frc consts  --    11.8411
 IR Inten    --     0.0000

 - Thermochemistry -
 -------------------
 Temperature   298.150 Kelvin.  Pressure   1.00000 Atm.
 Atom     1 has atomic number  1 and mass   1.00783

 Molecular mass:     2.01565 amu.
 Principal axes and moments of inertia in atomic units:
                           1         2         3
     Eigenvalues --     0.00000   0.99288   0.99288
           X           -0.00000   1.00000  -0.00000
           Y            0.00000   0.00000   1.00000
           Z            1.00000   0.00000  -0.00000
 This molecule is a prolate symmetric top.
 Rotational symmetry number  2.
 Rotational temperature (Kelvin)     87.23528
 Rotational constant (GHZ):        1817.690573
 Zero-point vibrational energy      26710.1 (Joules/Mol)
                                    6.38386 (Kcal/Mol)
 Vibrational temperatures:   6424.96
          (Kelvin)

 Zero-point correction=                           0.010173 (Hartree/Particle)
 Thermal correction to Energy=                    0.012534
 Thermal correction to Enthalpy=                  0.013478
 Thermal correction to Gibbs Free Energy=        -0.001314
 Sum of electronic and zero-point Energies=             -1.168366
 Sum of electronic and thermal Energies=                -1.166006
 Sum of electronic and thermal Enthalpies=              -1.165061
 Sum of electronic and thermal Free Energies=           -1.179853

                     E (Thermal)             CV                S
                      KCal/Mol        Cal/Mol-Kelvin    Cal/Mol-Kelvin
 Total                    7.865              4.968             31.132
 Electronic               0.000              0.000              0.000
 Translational            0.889              2.981             28.080
 Rotational               0.592              1.987              3.052
 Vibrational              6.384              0.000              0.000

 Optimization completed.
    -- Stationary point found.
 Normal termination of Gaussian 09 at Tue Aug 13 17:19:16 2024.
