 Gaussian 09, Revision A.02,
 Gaussian 09:  EM64L-G09RevA.02 11-Jun-2009

 ------------------------
 #p scan pop=full gfinput
 ------------------------

 ------------------
 molecular_hydrogen
 ------------------
 Symbolic Z-matrix:
 Charge =  0 Multiplicity = 1

 SCF Done:  E(RHF) =  -1.04299627578     A.U. after    1 cycles

 The electronic state is 1-SGG.
 Alpha  occ. eigenvalues --   -0.69082
 Alpha virt. eigenvalues --    0.98867

 Mulliken atomic charges:
              1
     1  H   -0.000000
     2  H   -0.000000
 Sum of Mulliken atomic charges =  -0.00000

 Dipole moment (field-independent basis, Debye):
    X=             -0.0000    Y=              0.0000    Z=              0.0000  Tot=              0.0000
 Quadrupole moment (field-independent basis, Debye-Ang):
   XX=             -1.8059   YY=             -1.8059   ZZ=             -1.5894
   XY=              0.0000   XZ=             -0.0000   YZ=              0.0000

 SCF Done:  E(RHF) =  -1.05155584114     A.U. after    1 cycles
 SCF Done:  E(RHF) =  -1.05939669736     A.U. after    1 cycles
 SCF Done:  E(RHF) =  -1.06656491024     A.U. after    1 cycles
 SCF Done:  E(RHF) =  -1.07310309372     A.U. after    1 cycles
 SCF Done:  E(RHF) =  -1.07905073705     A.U. after    1 cycles
 SCF Done:  E(RHF) =  -1.08444449526     A.U. after    1 cycles
 SCF Done:  E(RHF) =  -1.08931844700     A.U. after    1 cycles
 SCF Done:  E(RHF) =  -1.09370432375     A.U. after    1 cycles
 SCF Done:  E(RHF) =  -1.09763171362     A.U. after    1 cycles
 SCF Done:  E(RHF) = -0.938365107517     A.U. after    1 cycles
 SCF Done:  E(RHF) = -0.935260491494     A.U. after    1 cycles
 SCF Done:  E(RHF) = -0.932167310652     A.U. after    1 cycles
 SCF Done:  E(RHF) = -0.929086049928     A.U. after    1 cycles
 SCF Done:  E(RHF) = -0.926017174601     A.U. after    1 cycles
 SCF Done:  E(RHF) = -0.922961130819     A.U. after    1 cycles
 SCF Done:  E(RHF) = -0.919918346120     A.U. after    1 cycles
 SCF Done:  E(RHF) = -0.916889229941     A.U. after    1 cycles
 SCF Done:  E(RHF) = -0.913874174129     A.U. after    1 cycles

                         Standard orientation:
 ---------------------------------------------------------------------
 Center     Atomic      Atomic             Coordinates (Angstroms)
 Number     Number       Type             X           Y           Z
 ---------------------------------------------------------------------
      1          1           0        0.000000    0.000000    0.750000
      2          1           0        0.000000    0.000000   -0.750000
 ---------------------------------------------------------------------

 SCF Done:  E(RHF) = -0.910873553436     A.U. after    1 cycles
 Normal termination of Gaussian 09 at Tue Aug 13 20:38:07 2024.
