 Gaussian 09, Revision D.01,
 Gaussian 09:  EM64L-G09RevD.01 24-Apr-2013

 ----------------------------------------------------------------------
 #p B3LYP/6-31g(d,p) opt=(Z-Matrix,ts,calcfc) nosym freq temperature=30
 0 pop=full gfinput
 ----------------------------------------------------------------------

 ------------------
 ch4+h to ch3+h2 ts
 ------------------
 Symbolic Z-matrix:
 Charge =  0 Multiplicity = 2

 SCF Done:  E(UB3LYP) =  -41.0095577279     A.U. after   12 cycles
 SCF Done:  E(UB3LYP) =  -41.0094801509     A.U. after   12 cycles
 SCF Done:  E(UB3LYP) =  -41.0094786741     A.U. after    9 cycles
 SCF Done:  E(UB3LYP) =  -41.0094787049     A.U. after    8 cycles
 Optimization completed.
    -- Stationary point found.
 Normal termination of Gaussian 09 at Fri Sep 13 21:49:05 2024.

 ----------------------------------------------------------------------
 #P Geom=AllCheck Guess=TCheck SCRF=Check GenChk UB3LYP/6-31G(d,p) Freq
 ----------------------------------------------------------------------

 Structure from the checkpoint file:  "ts.chk"
 ------------------
 ch4+h to ch3+h2 ts
 ------------------
 Charge =  0 Multiplicity = 2

                          Input orientation:
 ---------------------------------------------------------------------
 Center     Atomic      Atomic             Coordinates (Angstroms)
 Number     Number       Type             X           Y           Z
 ---------------------------------------------------------------------
      1          6           0        0.000000    0.000000    0.000000
      2          1           0        0.000000    0.000000    1.087388
      3          1           0        0.986801    0.000000   -0.456784
      4          1           0       -0.714862   -0.680219   -0.456830
      5          1           0       -0.509854    1.275780   -0.325996
      6          1           0       -0.832635    2.083543   -0.532408
 ---------------------------------------------------------------------

 SCF Done:  E(UB3LYP) =  -41.0094787049     A.U. after    1 cycles

 Alpha  occ. eigenvalues --  -10.19697  -0.70212  -0.44665  -0.41517  -0.41516
 Alpha  occ. eigenvalues --   -0.21365
 Alpha virt. eigenvalues --    0.11490   0.16962   0.16962   0.20190   0.51724
 Alpha virt. eigenvalues --    0.51724   0.54741   0.68095   0.87068   0.87069
 Alpha virt. eigenvalues --    0.90418   0.96641   1.18338   1.36856   1.36857

  Beta  occ. eigenvalues --  -10.18614  -0.67465  -0.40754  -0.40754  -0.40361
  Beta virt. eigenvalues --   -0.07440   0.12307   0.17599   0.17599   0.23136
  Beta virt. eigenvalues --    0.52143   0.52143   0.59425   0.72047   0.87692
  Beta virt. eigenvalues --    0.87693   0.92709   0.97592   1.20469   1.39336

 Mulliken charges and spin densities:
               1          2
     1  C   -0.402635   0.699415
     2  H    0.136335  -0.020197
     3  H    0.136334  -0.020197
     4  H    0.136334  -0.020196
     5  H    0.030252  -0.133284
     6  H   -0.036620   0.494458
 Sum of Mulliken charges =  -0.00000   1.00000

 Dipole moment (field-independent basis, Debye):
    X=              0.2747    Y=             -0.6873    Z=              0.1756  Tot=              0.7607
 Quadrupole moment (field-independent basis, Debye-Ang):
   XX=             -9.5239   YY=            -11.1306   ZZ=             -9.3433
   XY=              0.7643   XZ=             -0.1952   YZ=              0.4885

  Exact polarizability:  14.949  -5.159  25.798   1.318  -3.300  13.730
 Approx polarizability:  17.883  -6.249  31.025   1.597  -3.997  16.407

 ******    1 imaginary frequencies (negative Signs) ******

                      1                      2                      3
                      A                      A                      A
 Frequencies --  -1140.7195               552.4956               552.5913
 Red. masses --      1.1630                 1.0457                 1.0457
 Frc consts  --      0.8916                 0.1881                 0.1881
 IR Inten    --   3.447                 0.4114                 0.4110

                      4                      5                      6
                      A                      A                      A
 Frequencies --   1085.6002              1165.0386              1165.0862
 Red. masses --      1.0785                 1.0490                 1.0491
 Frc consts  --      0.7489                 0.8389                 0.8390
 IR Inten    --   4.142                  2.741                  2.743

                      7                      8                      9
                      A                      A                      A
 Frequencies --   1446.5668              1446.8696              1891.7905
 Red. masses --      1.0752                 1.0752                 1.0752
 Frc consts  --      1.3256                 1.3261                 2.2671
 IR Inten    --   3.296                  3.296                  21.25

                     10                     11                     12
                      A                      A                      A
 Frequencies --   3092.5176              3240.6569              3240.7968
 Red. masses --      1.0173                 1.1123                 1.1123
 Frc consts  --      5.7323                 6.8826                 6.8832
 IR Inten    --  0.4530                  11.01                  11.01

 - Thermochemistry -
 -------------------
 Temperature   300.000 Kelvin.  Pressure   1.00000 Atm.
 Atom     1 has atomic number  6 and mass  12.00000

 Molecular mass:    17.03913 amu.
 Principal axes and moments of inertia in atomic units:
                           1         2         3
     Eigenvalues --    12.08659  31.16651  31.16675
           X           -0.36105   0.80619  -0.46873
           Y            0.90351   0.42686   0.03822
           Z           -0.23089   0.40970   0.88252
 This molecule is an asymmetric top.
 Rotational symmetry number  1.
 Rotational temperatures (Kelvin)      7.16611     2.77907     2.77904
 Rotational constants (GHZ):         149.31769    57.90643    57.90597
    1 imaginary frequencies ignored.
 Zero-point vibrational energy     112927.5 (Joules/Mol)
                                   26.99033 (Kcal/Mol)
 Warning -- explicit consideration of   2 degrees of freedom as
           vibrations may cause significant error
 Vibrational temperatures:    794.92   795.05  1561.93  1676.23  1676.30
          (Kelvin)           2081.28  2081.72  2721.86  4449.44  4662.58
                             4662.78

 Zero-point correction=                           0.043012 (Hartree/Particle)
 Thermal correction to Energy=                    0.046326
 Thermal correction to Enthalpy=                  0.047276
 Thermal correction to Gibbs Free Energy=         0.021328
 Sum of electronic and zero-point Energies=            -40.966467
 Sum of electronic and thermal Energies=               -40.963153
 Sum of electronic and thermal Enthalpies=             -40.962203
 Sum of electronic and thermal Free Energies=          -40.988151

                     E (Thermal)             CV                S
                      KCal/Mol        Cal/Mol-Kelvin    Cal/Mol-Kelvin
 Total                   29.070              9.216             54.275
 Electronic               0.000              0.000              1.377
 Translational            0.894              2.981             34.474
 Rotational               0.894              2.981             17.132
 Vibrational             27.281              3.255              1.291
 Vibration     1          0.910              1.142              0.546
 Vibration     2          0.910              1.141              0.546

 Optimization completed.
    -- Stationary point found.
 Normal termination of Gaussian 09 at Fri Sep 13 21:49:08 2024.
