 Gaussian 09, Revision A.02,
 Gaussian 09:  EM64L-G09RevA.02 11-Jun-2009

 -----------------------------------------------------------------
 #p b3lyp/6-31+G opt freq symmetry=(follow,pg=Td) pop=full gfinput
 -----------------------------------------------------------------

 ----------------------------------------------------------
 methane with imposed symmetry and hf/6-31+G basis function
 ----------------------------------------------------------
 Symbolic Z-matrix:
 Charge =  0 Multiplicity = 1

 SCF Done:  E(RB3LYP) =  -40.5129372865     A.U. after    7 cycles
 SCF Done:  E(RB3LYP) =  -40.5129734541     A.U. after    6 cycles
 Optimization completed.
    -- Stationary point found.
 Normal termination of Gaussian 09 at Sat Aug 17 14:54:31 2024.

 ------------------------------------------------------------------
 #P Geom=AllCheck Guess=TCheck SCRF=Check GenChk RB3LYP/6-31+G Freq
 ------------------------------------------------------------------

 methane with imposed symmetry and hf/6-31+G basis function
 ----------------------------------------------------------
 Redundant internal coordinates taken from checkpoint file:
 /home/ospite/Desktop/MMfP/Project6/CH4/g09/DFT/Gau-4429.chk
 Charge =  0 Multiplicity = 1

                         Standard orientation:
 ---------------------------------------------------------------------
 Center     Atomic      Atomic             Coordinates (Angstroms)
 Number     Number       Type             X           Y           Z
 ---------------------------------------------------------------------
      1          6           0        0.000000    0.000000    0.000000
      2          1           0        0.631542    0.631542    0.631542
      3          1           0       -0.631542   -0.631542    0.631542
      4          1           0       -0.631542    0.631542   -0.631542
      5          1           0        0.631542   -0.631542   -0.631542
 ---------------------------------------------------------------------

 SCF Done:  E(RB3LYP) =  -40.5129734541     A.U. after    1 cycles

 The electronic state is 1-A1.
 Alpha  occ. eigenvalues --  -10.16570  -0.69852  -0.39547  -0.39547  -0.39547
 Alpha virt. eigenvalues --    0.01668   0.06166   0.06166   0.06166   0.18079
 Alpha virt. eigenvalues --    0.18079   0.18079   0.27569   0.65200   0.65200
 Alpha virt. eigenvalues --    0.65200   0.99212   0.99212   0.99212   1.06123

 Mulliken atomic charges:
              1
     1  C   -0.749836
     2  H    0.187459
     3  H    0.187459
     4  H    0.187459
     5  H    0.187459
 Sum of Mulliken atomic charges =  -0.00000

 Dipole moment (field-independent basis, Debye):
    X=              0.0000    Y=              0.0000    Z=             -0.0000  Tot=              0.0000
 Quadrupole moment (field-independent basis, Debye-Ang):
   XX=             -8.5550   YY=             -8.5550   ZZ=             -8.5550
   XY=             -0.0000   XZ=              0.0000   YZ=              0.0000

  Exact polarizability:  13.155   0.000  13.155  -0.000   0.000  13.155
 Approx polarizability:  15.107  -0.000  15.107   0.000   0.000  15.107

                     1                      2                      3
                    T2                     T2                     T2
 Frequencies --  1397.4628              1397.4628              1397.4628
 Red. masses --     1.1827                 1.1827                 1.1827
 Frc consts  --     1.3608                 1.3608                 1.3608
 IR Inten    --    31.5249                31.5249                31.5249

                     4                      5                      6
                     E                      E                     A1
 Frequencies --  1593.1423              1593.1423              3037.9229
 Red. masses --     1.0078                 1.0078                 1.0078
 Frc consts  --     1.5071                 1.5071                 5.4801
 IR Inten    --     0.0000                 0.0000                 0.0000

                     7                      8                      9
                    T2                     T2                     T2
 Frequencies --  3156.5343              3156.5343              3156.5343
 Red. masses --     1.0984                 1.0984                 1.0984
 Frc consts  --     6.4482                 6.4482                 6.4482
 IR Inten    --    30.8145                30.8145                30.8145

 - Thermochemistry -
 -------------------
 Temperature   298.150 Kelvin.  Pressure   1.00000 Atm.
 Atom     1 has atomic number  6 and mass  12.00000

 Molecular mass:    16.03130 amu.
 Principal axes and moments of inertia in atomic units:
                           1         2         3
     Eigenvalues --    11.48358  11.48358  11.48358
           X           -0.36405   0.93077  -0.03376
           Y            0.91827   0.35263  -0.18007
           Z            0.15570   0.09656   0.98307
 This molecule is a spherical top.
 Rotational symmetry number 12.
 Rotational temperatures (Kelvin)      7.54240     7.54240     7.54240
 Rotational constants (GHZ):         157.15836   157.15836   157.15836
 Zero-point vibrational energy     118945.9 (Joules/Mol)
                                   28.42875 (Kcal/Mol)
 Vibrational temperatures:   2010.63  2010.63  2010.63  2292.17  2292.17
          (Kelvin)           4370.89  4541.54  4541.54  4541.54

 Zero-point correction=                           0.045304 (Hartree/Particle)
 Thermal correction to Energy=                    0.048166
 Thermal correction to Enthalpy=                  0.049110
 Thermal correction to Gibbs Free Energy=         0.027980
 Sum of electronic and zero-point Energies=            -40.467669
 Sum of electronic and thermal Energies=               -40.464808
 Sum of electronic and thermal Enthalpies=             -40.463863
 Sum of electronic and thermal Free Energies=          -40.484994

                     E (Thermal)             CV                S
                      KCal/Mol        Cal/Mol-Kelvin    Cal/Mol-Kelvin
 Total                   30.225              6.390             44.472
 Electronic               0.000              0.000              0.000
 Translational            0.889              2.981             34.261
 Rotational               0.889              2.981             10.141
 Vibrational             28.447              0.428              0.070

 Optimization completed.
    -- Stationary point found.
 Normal termination of Gaussian 09 at Sat Aug 17 14:54:39 2024.
