 Gaussian 09, Revision A.02,
 Gaussian 09:  EM64L-G09RevA.02 11-Jun-2009

 ------------------------------------------------------------------
 #p b3lyp/6-31++G opt freq symmetry=(follow,pg=Td) pop=full gfinput
 ------------------------------------------------------------------

 -----------------------------------------------------------
 methane with imposed symmetry and hf/6-31++G basis function
 -----------------------------------------------------------
 Symbolic Z-matrix:
 Charge =  0 Multiplicity = 1

 SCF Done:  E(RB3LYP) =  -40.5129619656     A.U. after    7 cycles
 SCF Done:  E(RB3LYP) =  -40.5129972085     A.U. after    6 cycles
 Optimization completed.
    -- Stationary point found.
 Normal termination of Gaussian 09 at Sat Aug 17 14:54:53 2024.

 -------------------------------------------------------------------
 #P Geom=AllCheck Guess=TCheck SCRF=Check GenChk RB3LYP/6-31++G Freq
 -------------------------------------------------------------------

 methane with imposed symmetry and hf/6-31++G basis function
 -----------------------------------------------------------
 Redundant internal coordinates taken from checkpoint file:
 /home/ospite/Desktop/MMfP/Project6/CH4/g09/DFT/Gau-4438.chk
 Charge =  0 Multiplicity = 1

                         Standard orientation:
 ---------------------------------------------------------------------
 Center     Atomic      Atomic             Coordinates (Angstroms)
 Number     Number       Type             X           Y           Z
 ---------------------------------------------------------------------
      1          6           0        0.000000    0.000000    0.000000
      2          1           0        0.631513    0.631513    0.631513
      3          1           0       -0.631513   -0.631513    0.631513
      4          1           0       -0.631513    0.631513   -0.631513
      5          1           0        0.631513   -0.631513   -0.631513
 ---------------------------------------------------------------------

 SCF Done:  E(RB3LYP) =  -40.5129972085     A.U. after    1 cycles

 The electronic state is 1-A1.
 Alpha  occ. eigenvalues --  -10.16563  -0.69857  -0.39550  -0.39550  -0.39550
 Alpha virt. eigenvalues --   -0.00523   0.04071   0.04071   0.04071   0.10228
 Alpha virt. eigenvalues --    0.10228   0.10228   0.13744   0.21495   0.21495
 Alpha virt. eigenvalues --    0.21495   0.34659   0.71103   0.71103   0.71103

 Mulliken atomic charges:
              1
     1  C   -0.812168
     2  H    0.203042
     3  H    0.203042
     4  H    0.203042
     5  H    0.203042
 Sum of Mulliken atomic charges =  -0.00000

 Dipole moment (field-independent basis, Debye):
    X=              0.0000    Y=              0.0000    Z=              0.0000  Tot=              0.0000
 Quadrupole moment (field-independent basis, Debye-Ang):
   XX=             -8.5519   YY=             -8.5519   ZZ=             -8.5519
   XY=              0.0000   XZ=              0.0000   YZ=              0.0000

  Exact polarizability:  13.664   0.000  13.664   0.000   0.000  13.664
 Approx polarizability:  15.609  -0.000  15.609   0.000   0.000  15.609

                     1                      2                      3
                    T2                     T2                     T2
 Frequencies --  1397.1408              1397.1408              1397.1408
 Red. masses --     1.1827                 1.1827                 1.1827
 Frc consts  --     1.3603                 1.3603                 1.3603
 IR Inten    --    31.0605                31.0605                31.0605

                     4                      5                      6
                     E                      E                     A1
 Frequencies --  1594.5882              1594.5882              3037.5268
 Red. masses --     1.0078                 1.0078                 1.0078
 Frc consts  --     1.5098                 1.5098                 5.4787
 IR Inten    --     0.0000                 0.0000                 0.0000

                     7                      8                      9
                    T2                     T2                     T2
 Frequencies --  3155.5764              3155.5764              3155.5764
 Red. masses --     1.0984                 1.0984                 1.0984
 Frc consts  --     6.4441                 6.4441                 6.4441
 IR Inten    --    33.9090                33.9090                33.9090

 - Thermochemistry -
 -------------------
 Temperature   298.150 Kelvin.  Pressure   1.00000 Atm.
 Atom     1 has atomic number  6 and mass  12.00000

 Molecular mass:    16.03130 amu.
 Principal axes and moments of inertia in atomic units:
                           1         2         3
     Eigenvalues --    11.48252  11.48252  11.48252
           X            0.59371   0.76893   0.23720
           Y           -0.08976  -0.22965   0.96913
           Z            0.79966  -0.59667  -0.06733
 This molecule is a spherical top.
 Rotational symmetry number 12.
 Rotational temperatures (Kelvin)      7.54310     7.54310     7.54310
 Rotational constants (GHZ):         157.17289   157.17289   157.17289
 Zero-point vibrational energy     118937.8 (Joules/Mol)
                                   28.42683 (Kcal/Mol)
 Vibrational temperatures:   2010.17  2010.17  2010.17  2294.25  2294.25
          (Kelvin)           4370.32  4540.16  4540.16  4540.16

 Zero-point correction=                           0.045301 (Hartree/Particle)
 Thermal correction to Energy=                    0.048163
 Thermal correction to Enthalpy=                  0.049107
 Thermal correction to Gibbs Free Energy=         0.027977
 Sum of electronic and zero-point Energies=            -40.467696
 Sum of electronic and thermal Energies=               -40.464834
 Sum of electronic and thermal Enthalpies=             -40.463890
 Sum of electronic and thermal Free Energies=          -40.485020

                     E (Thermal)             CV                S
                      KCal/Mol        Cal/Mol-Kelvin    Cal/Mol-Kelvin
 Total                   30.223              6.390             44.472
 Electronic               0.000              0.000              0.000
 Translational            0.889              2.981             34.261
 Rotational               0.889              2.981             10.141
 Vibrational             28.445              0.428              0.070

 Optimization completed.
    -- Stationary point found.
 Normal termination of Gaussian 09 at Sat Aug 17 14:55:04 2024.
