 Gaussian 09, Revision A.02,
 Gaussian 09:  EM64L-G09RevA.02 11-Jun-2009

 ----------------------------------------------------------------
 #p b3lyp/6-31G opt freq symmetry=(follow,pg=Td) pop=full gfinput
 ----------------------------------------------------------------

 ------------------------------------------------------------
 methane with imposed symmetry Td and hf/6-31G basis function
 ------------------------------------------------------------
 Symbolic Z-matrix:
 Charge =  0 Multiplicity = 1

 SCF Done:  E(RB3LYP) =  -40.5106234754     A.U. after    9 cycles
 SCF Done:  E(RB3LYP) =  -40.5106487015     A.U. after    5 cycles
 Optimization completed.
    -- Stationary point found.
 Normal termination of Gaussian 09 at Sat Aug 17 14:46:02 2024.

 -----------------------------------------------------------------
 #P Geom=AllCheck Guess=TCheck SCRF=Check GenChk RB3LYP/6-31G Freq
 -----------------------------------------------------------------

 methane with imposed symmetry Td and hf/6-31G basis function
 ------------------------------------------------------------
 Redundant internal coordinates taken from checkpoint file:
 /home/ospite/Desktop/MMfP/Project6/CH4/g09/DFT/Gau-4038.chk
 Charge =  0 Multiplicity = 1

                         Standard orientation:
 ---------------------------------------------------------------------
 Center     Atomic      Atomic             Coordinates (Angstroms)
 Number     Number       Type             X           Y           Z
 ---------------------------------------------------------------------
      1          6           0        0.000000    0.000000    0.000000
      2          1           0        0.631177    0.631177    0.631177
      3          1           0       -0.631177   -0.631177    0.631177
      4          1           0       -0.631177    0.631177   -0.631177
      5          1           0        0.631177   -0.631177   -0.631177
 ---------------------------------------------------------------------

 SCF Done:  E(RB3LYP) =  -40.5106487015     A.U. after    1 cycles

 The electronic state is 1-A1.
 Alpha  occ. eigenvalues --  -10.16004  -0.69285  -0.38987  -0.38987  -0.38987
 Alpha virt. eigenvalues --    0.11727   0.17560   0.17560   0.17560   0.54443
 Alpha virt. eigenvalues --    0.54443   0.54443   0.93861   0.93861   0.93861
 Alpha virt. eigenvalues --    0.94464   1.11020

 Mulliken atomic charges:
              1
     1  C   -0.578157
     2  H    0.144539
     3  H    0.144539
     4  H    0.144539
     5  H    0.144539
 Sum of Mulliken atomic charges =  -0.00000

 Dipole moment (field-independent basis, Debye):
    X=             -0.0000    Y=              0.0000    Z=              0.0000  Tot=              0.0000
 Quadrupole moment (field-independent basis, Debye-Ang):
   XX=             -8.2821   YY=             -8.2821   ZZ=             -8.2821
   XY=              0.0000   XZ=              0.0000   YZ=             -0.0000

  Exact polarizability:  12.123  -0.000  12.123   0.000  -0.000  12.123
 Approx polarizability:  13.991  -0.000  13.991   0.000   0.000  13.991

                     1                      2                      3
                    T2                     T2                     T2
 Frequencies --  1404.2409              1404.2409              1404.2409
 Red. masses --     1.1824                 1.1824                 1.1824
 Frc consts  --     1.3737                 1.3737                 1.3737
 IR Inten    --    25.0882                25.0882                25.0882

                     4                      5                      6
                     E                      E                     A1
 Frequencies --  1602.4048              1602.4048              3044.6338
 Red. masses --     1.0078                 1.0078                 1.0078
 Frc consts  --     1.5247                 1.5247                 5.5043
 IR Inten    --     0.0000                 0.0000                 0.0000

                     7                      8                      9
                    T2                     T2                     T2
 Frequencies --  3167.6813              3167.6813              3167.6813
 Red. masses --     1.0987                 1.0987                 1.0987
 Frc consts  --     6.4956                 6.4956                 6.4956
 IR Inten    --    30.9705                30.9705                30.9705

 - Thermochemistry -
 -------------------
 Temperature   298.150 Kelvin.  Pressure   1.00000 Atm.
 Atom     1 has atomic number  6 and mass  12.00000

 Molecular mass:    16.03130 amu.
 Principal axes and moments of inertia in atomic units:
                           1         2         3
     Eigenvalues --    11.47030  11.47030  11.47030
           X            0.91875   0.24045  -0.31319
           Y           -0.30748   0.93331  -0.18545
           Z            0.24771   0.26668   0.93141
 This molecule is a spherical top.
 Rotational symmetry number 12.
 Rotational temperatures (Kelvin)      7.55114     7.55114     7.55114
 Rotational constants (GHZ):         157.34042   157.34042   157.34042
 Zero-point vibrational energy     119418.5 (Joules/Mol)
                                   28.54170 (Kcal/Mol)
 Vibrational temperatures:   2020.39  2020.39  2020.39  2305.50  2305.50
          (Kelvin)           4380.54  4557.58  4557.58  4557.58

 Zero-point correction=                           0.045484 (Hartree/Particle)
 Thermal correction to Energy=                    0.048345
 Thermal correction to Enthalpy=                  0.049289
 Thermal correction to Gibbs Free Energy=         0.028162
 Sum of electronic and zero-point Energies=            -40.465165
 Sum of electronic and thermal Energies=               -40.462304
 Sum of electronic and thermal Enthalpies=             -40.461360
 Sum of electronic and thermal Free Energies=          -40.482487

                     E (Thermal)             CV                S
                      KCal/Mol        Cal/Mol-Kelvin    Cal/Mol-Kelvin
 Total                   30.337              6.379             44.467
 Electronic               0.000              0.000              0.000
 Translational            0.889              2.981             34.261
 Rotational               0.889              2.981             10.137
 Vibrational             28.559              0.418              0.068

 Optimization completed.
    -- Stationary point found.
 Normal termination of Gaussian 09 at Sat Aug 17 14:46:08 2024.
