 Gaussian 09, Revision A.02,
 Gaussian 09:  EM64L-G09RevA.02 11-Jun-2009

 ----------------------------------------------------------------------
 #p b3lyp/aug-cc-pVDZ opt freq symmetry=(follow,pg=Td) pop=full gfinput
 ----------------------------------------------------------------------

 ---------------------------------------------------------------
 methane with imposed symmetry and hf/aug-cc-pVDZ basis function
 ---------------------------------------------------------------
 Symbolic Z-matrix:
 Charge =  0 Multiplicity = 1

 SCF Done:  E(RB3LYP) =  -40.5205075132     A.U. after    7 cycles
 SCF Done:  E(RB3LYP) =  -40.5206269021     A.U. after    6 cycles
 Optimization completed.
    -- Stationary point found.
 Normal termination of Gaussian 09 at Sat Aug 17 15:02:24 2024.

 ----------------------------------------------------------------------
 #P Geom=AllCheck Guess=TCheck SCRF=Check GenChk RB3LYP/Aug-CC-pVDZ Fre
 q
 ----------------------------------------------------------------------

 methane with imposed symmetry and hf/aug-cc-pVDZ basis function
 ---------------------------------------------------------------
 Redundant internal coordinates taken from checkpoint file:
 /home/ospite/Desktop/MMfP/Project6/CH4/g09/DFT/Gau-4741.chk
 Charge =  0 Multiplicity = 1

                         Standard orientation:
 ---------------------------------------------------------------------
 Center     Atomic      Atomic             Coordinates (Angstroms)
 Number     Number       Type             X           Y           Z
 ---------------------------------------------------------------------
      1          6           0        0.000000    0.000000    0.000000
      2          1           0        0.633372    0.633372    0.633372
      3          1           0       -0.633372   -0.633372    0.633372
      4          1           0       -0.633372    0.633372   -0.633372
      5          1           0        0.633372   -0.633372   -0.633372
 ---------------------------------------------------------------------

 SCF Done:  E(RB3LYP) =  -40.5206269021     A.U. after    1 cycles

 The electronic state is 1-A1.
 Alpha  occ. eigenvalues --  -10.17304  -0.69548  -0.39344  -0.39344  -0.39344
 Alpha virt. eigenvalues --   -0.00693   0.03148   0.03148   0.03148   0.09340
 Alpha virt. eigenvalues --    0.09340   0.09340   0.10921   0.17229   0.17229
 Alpha virt. eigenvalues --    0.17229   0.20117   0.20117   0.30204   0.33699

 Mulliken atomic charges:
              1
     1  C    1.177388
     2  H   -0.294347
     3  H   -0.294347
     4  H   -0.294347
     5  H   -0.294347
 Sum of Mulliken atomic charges =  -0.00000

 Dipole moment (field-independent basis, Debye):
    X=              0.0000    Y=              0.0000    Z=              0.0000  Tot=              0.0000
 Quadrupole moment (field-independent basis, Debye-Ang):
   XX=             -8.5409   YY=             -8.5409   ZZ=             -8.5409
   XY=              0.0000   XZ=              0.0000   YZ=             -0.0000

  Exact polarizability:  17.193   0.000  17.193   0.000   0.000  17.193
 Approx polarizability:  21.389   0.000  21.389   0.000   0.000  21.389

                     1                      2                      3
                    T2                     T2                     T2
 Frequencies --  1303.6787              1303.6787              1303.6787
 Red. masses --     1.1795                 1.1795                 1.1795
 Frc consts  --     1.1811                 1.1811                 1.1811
 IR Inten    --    10.6951                10.6951                10.6951

                     4                      5                      6
                     E                      E                     A1
 Frequencies --  1522.4853              1522.4853              3026.7990
 Red. masses --     1.0078                 1.0078                 1.0078
 Frc consts  --     1.3764                 1.3764                 5.4400
 IR Inten    --     0.0000                 0.0000                 0.0000

                     7                      8                      9
                    T2                     T2                     T2
 Frequencies --  3143.4967              3143.4967              3143.4967
 Red. masses --     1.1012                 1.1012                 1.1012
 Frc consts  --     6.4114                 6.4114                 6.4114
 IR Inten    --    22.1145                22.1146                22.1145

 - Thermochemistry -
 -------------------
 Temperature   298.150 Kelvin.  Pressure   1.00000 Atm.
 Atom     1 has atomic number  6 and mass  12.00000

 Molecular mass:    16.03130 amu.
 Principal axes and moments of inertia in atomic units:
                           1         2         3
     Eigenvalues --    11.55024  11.55024  11.55024
           X            0.26177   0.92077  -0.28924
           Y            0.16419   0.25284   0.95348
           Z            0.95106  -0.29708  -0.08499
 This molecule is a spherical top.
 Rotational symmetry number 12.
 Rotational temperatures (Kelvin)      7.49888     7.49888     7.49888
 Rotational constants (GHZ):         156.25139   156.25139   156.25139
 Zero-point vibrational energy     116117.3 (Joules/Mol)
                                   27.75270 (Kcal/Mol)
 Vibrational temperatures:   1875.70  1875.70  1875.70  2190.51  2190.51
          (Kelvin)           4354.88  4522.78  4522.78  4522.79

 Zero-point correction=                           0.044227 (Hartree/Particle)
 Thermal correction to Energy=                    0.047101
 Thermal correction to Enthalpy=                  0.048046
 Thermal correction to Gibbs Free Energy=         0.026892
 Sum of electronic and zero-point Energies=            -40.476400
 Sum of electronic and thermal Energies=               -40.473526
 Sum of electronic and thermal Enthalpies=             -40.472581
 Sum of electronic and thermal Free Energies=          -40.493735

                     E (Thermal)             CV                S
                      KCal/Mol        Cal/Mol-Kelvin    Cal/Mol-Kelvin
 Total                   29.557              6.539             44.521
 Electronic               0.000              0.000              0.000
 Translational            0.889              2.981             34.261
 Rotational               0.889              2.981             10.158
 Vibrational             27.779              0.578              0.102

 Optimization completed.
    -- Stationary point found.
 Normal termination of Gaussian 09 at Sat Aug 17 15:03:04 2024.
