 Gaussian 09, Revision A.02,
 Gaussian 09:  EM64L-G09RevA.02 11-Jun-2009

 -------------------------------------------------
 #p B3LYP/6-31+g(d,p) opt scrf=(smd,solvent=water)
 -------------------------------------------------

 -------------
 ho2- solution
 -------------
 Symbolic Z-matrix:
 Charge = -1 Multiplicity = 1

 SCF Done:  E(RB3LYP) =  -151.056638656     A.U. after   10 cycles
 SCF Done:  E(RB3LYP) =  -151.087569487     A.U. after   10 cycles
 SCF Done:  E(RB3LYP) =  -151.094023553     A.U. after   10 cycles
 SCF Done:  E(RB3LYP) =  -151.094254027     A.U. after    9 cycles
 SCF Done:  E(RB3LYP) =  -151.094261107     A.U. after    8 cycles
 Optimization completed.
    -- Stationary point found.

                         Standard orientation:
 ---------------------------------------------------------------------
 Center     Atomic      Atomic             Coordinates (Angstroms)
 Number     Number       Type             X           Y           Z
 ---------------------------------------------------------------------
      1          8           0        0.055719   -0.694542    0.000000
      2          8           0        0.055719    0.807146   -0.000000
      3          1           0       -0.891506   -0.900838    0.000000
 ---------------------------------------------------------------------

 The electronic state is 1-A'.
 Alpha  occ. eigenvalues --  -19.16907 -19.10967  -1.02029  -0.78460  -0.45716
 Alpha  occ. eigenvalues --   -0.37197  -0.34473  -0.22506  -0.19814
 Alpha virt. eigenvalues --    0.02723   0.07424   0.14169   0.15364   0.16816
 Alpha virt. eigenvalues --    0.19666   0.20245   0.21038   0.27102   0.32667
 Alpha virt. eigenvalues --    0.97560   1.08989   1.10622   1.11129   1.18315

 Mulliken atomic charges:
              1
     1  O   -0.535362
     2  O   -0.852269
     3  H    0.387631
 Sum of Mulliken atomic charges =  -1.00000

 Dipole moment (field-independent basis, Debye):
    X=             -2.3766    Y=             -3.2412    Z=             -0.0000  Tot=              4.0191
 Quadrupole moment (field-independent basis, Debye-Ang):
   XX=            -12.8385   YY=            -17.2988   ZZ=            -15.2519
   XY=              1.8728   XZ=              0.0000   YZ=             -0.0000

 Normal termination of Gaussian 09 at Mon Sep 16 17:15:29 2024.
