 Gaussian 09, Revision A.02,
 Gaussian 09:  EM64L-G09RevA.02 11-Jun-2009

 ----------------------------------------------
 #p B3LYP/6-31+g(d,p) opt freq pop=full gfinput
 ----------------------------------------------

 --------------
 methil_radical
 --------------
 Symbolic Z-matrix:
 Charge =  0 Multiplicity = 2

 SCF Done:  E(UB3LYP) =  -39.8472283320     A.U. after    8 cycles
 SCF Done:  E(UB3LYP) =  -39.8473344125     A.U. after    7 cycles
 Optimization completed.
    -- Stationary point found.

 1\1\GINC-MOLMOD\FOpt\UB3LYP\6-31+G(d,p)\C1H3(2)\OSPITE\16-Aug-2024\0\\
 #p B3LYP/6-31+g(d,p) opt freq pop=full gfinput\\methil_radical\\0,2\C,
 0.,0.,0.\H,0.,0.,1.0823022253\H,0.9373012217,0.,-0.5411511126\H,-0.937
 3012217,0.,-0.5411511126\\Version=EM64L-G09RevA.02\State=2-A2"\HF=-39.
 8473344\S2=0.753351\S2-1=0.\S2A=0.750006\RMSD=9.963e-09\RMSF=1.223e-04
 \Dipole=0.,0.,0.\Quadrupole=0.5061025,-1.012205,0.5061025,0.,0.,0.\PG=
 D03H [O(C1),3C2(H1)]\\@

 Normal termination of Gaussian 09 at Fri Aug 16 12:59:39 2024.

 ----------------------------------------------------------------------
 #P Geom=AllCheck Guess=TCheck SCRF=Check GenChk UB3LYP/6-31+G(d,p) Fre
 q
 ----------------------------------------------------------------------

 methil_radical
 --------------
 Redundant internal coordinates taken from checkpoint file:
 /home/ospite/Desktop/MMfP/Project5/CH3/Gau-3545.chk
 Charge =  0 Multiplicity = 2

                         Standard orientation:
 ---------------------------------------------------------------------
 Center     Atomic      Atomic             Coordinates (Angstroms)
 Number     Number       Type             X           Y           Z
 ---------------------------------------------------------------------
      1          6           0        0.000000    0.000000    0.000000
      2          1           0        0.000000    1.082302    0.000000
      3          1           0        0.937301   -0.541151    0.000000
      4          1           0       -0.937301   -0.541151    0.000000
 ---------------------------------------------------------------------

 SCF Done:  E(UB3LYP) =  -39.8473344125     A.U. after    1 cycles

 The electronic state is 2-A2".
 Alpha  occ. eigenvalues --  -10.20469  -0.69062  -0.42507  -0.42507  -0.23549
 Alpha virt. eigenvalues --    0.01925   0.05828   0.05828   0.07402   0.18991
 Alpha virt. eigenvalues --    0.19303   0.19303   0.62922   0.62922   0.64886
 Alpha virt. eigenvalues --    0.82321   0.93602   0.93602   0.96481   1.42603

  Beta  occ. eigenvalues --  -10.19103  -0.65100  -0.41534  -0.41534
  Beta virt. eigenvalues --   -0.07749   0.02477   0.05808   0.05808   0.09912
  Beta virt. eigenvalues --    0.19741   0.19741   0.20955   0.63847   0.63847
  Beta virt. eigenvalues --    0.71744   0.84578   0.93738   0.93738   0.98790

 Mulliken atomic charges:
              1
     1  C   -0.463536
     2  H    0.154512
     3  H    0.154512
     4  H    0.154512
 Sum of Mulliken atomic charges =   0.00000

 Dipole moment (field-independent basis, Debye):
    X=             -0.0000    Y=             -0.0000    Z=              0.0000  Tot=              0.0000
 Quadrupole moment (field-independent basis, Debye-Ang):
   XX=             -7.3036   YY=             -7.3036   ZZ=             -9.3458
   XY=             -0.0000   XZ=              0.0000   YZ=             -0.0000

  Exact polarizability:  12.723  -0.000  12.724  -0.000   0.000  11.674
 Approx polarizability:  14.869  -0.000  14.869   0.000  -0.000  11.898

                     1                      2                      3
                    A2"                    E'                     E'
 Frequencies --   523.2320              1412.0119              1412.0135
 Red. masses --     1.2356                 1.1020                 1.1020
 Frc consts  --     0.1993                 1.2945                 1.2946
 IR Inten    --   104.5331                 4.5693                 4.5680

                     4                      5                      6
                    A1'                    E'                     E'
 Frequencies --  3128.3355              3309.7407              3309.7417
 Red. masses --     1.0078                 1.1184                 1.1184
 Frc consts  --     5.8111                 7.2183                 7.2183
 IR Inten    --     0.0000                 4.7890                 4.7886

 - Thermochemistry -
 -------------------
 Temperature   298.150 Kelvin.  Pressure   1.00000 Atm.
 Atom     1 has atomic number  6 and mass  12.00000

 Molecular mass:    15.02348 amu.
 Principal axes and moments of inertia in atomic units:
                           1         2         3
     Eigenvalues --     6.32370   6.32370  12.64740
           X           -0.52912   0.84854   0.00000
           Y            0.84854   0.52912   0.00000
           Z            0.00000   0.00000   1.00000
 This molecule is an oblate symmetric top.
 Rotational symmetry number  6.
 Rotational temperatures (Kelvin)     13.69670    13.69670     6.84835
 Rotational constants (GHZ):         285.39325   285.39325   142.69662
 Zero-point vibrational energy      78325.9 (Joules/Mol)
                                   18.72035 (Kcal/Mol)
 Warning -- explicit consideration of   1 degrees of freedom as
           vibrations may cause significant error
 Vibrational temperatures:    752.81  2031.57  2031.57  4500.97  4761.97
          (Kelvin)           4761.97

 Zero-point correction=                           0.029833 (Hartree/Particle)
 Thermal correction to Energy=                    0.032887
 Thermal correction to Enthalpy=                  0.033831
 Thermal correction to Gibbs Free Energy=         0.011733
 Sum of electronic and zero-point Energies=            -39.817502
 Sum of electronic and thermal Energies=               -39.814447
 Sum of electronic and thermal Enthalpies=             -39.813503
 Sum of electronic and thermal Free Energies=          -39.835602

                     E (Thermal)             CV                S
                      KCal/Mol        Cal/Mol-Kelvin    Cal/Mol-Kelvin
 Total                   20.637              7.364             46.510
 Electronic               0.000              0.000              1.377
 Translational            0.889              2.981             34.068
 Rotational               0.889              2.981             10.429
 Vibrational             18.859              1.402              0.637
 Vibration     1          0.878              1.199              0.603

 Optimization completed.
    -- Stationary point found.

 1\1\GINC-MOLMOD\Freq\UB3LYP\6-31+G(d,p)\C1H3(2)\OSPITE\16-Aug-2024\0\\
 #P Geom=AllCheck Guess=TCheck SCRF=Check GenChk UB3LYP/6-31+G(d,p) Fre
 q\\methil_radical\\0,2\C,0.,0.,0.\H,0.,0.,1.0823022253\H,0.9373012217,
 0.,-0.5411511126\H,-0.9373012217,0.,-0.5411511126\\Version=EM64L-G09Re
 vA.02\State=2-A2"\HF=-39.8473344\S2=0.753351\S2-1=0.\S2A=0.750006\RMSD
 =3.439e-10\RMSF=1.223e-04\ZeroPoint=0.0298328\Thermal=0.032887\Dipole=
 0.,0.,0.\DipoleDeriv=0.0073284,0.,0.,0.,-0.5088509,0.,0.,0.,0.0073059,
 0.0542778,0.,0.,0.,0.1696359,0.,0.,0.,-0.0591638,-0.0308032,0.,0.04911

 Normal termination of Gaussian 09 at Fri Aug 16 13:00:00 2024.
