 Gaussian 09, Revision D.01,
 Gaussian 09:  EM64L-G09RevD.01 24-Apr-2013

 ----------------------------------------------------------------------
 #p B3LYP/6-31g(d,p) opt=Z-Matrix nosym temperature=300 pop=full gfinpu
 t
 ----------------------------------------------------------------------

 ---------------------------
 ch4+h to ch3+h2 pushing hc5
 ---------------------------
 Symbolic Z-matrix:
 Charge =  0 Multiplicity = 2

 SCF Done:  E(UB3LYP) =  -41.0244942079     A.U. after   11 cycles
 SCF Done:  E(UB3LYP) =  -41.0244958071     A.U. after    6 cycles
 SCF Done:  E(UB3LYP) =  -41.0244961580     A.U. after    6 cycles
 SCF Done:  E(UB3LYP) =  -41.0244968204     A.U. after    6 cycles
 SCF Done:  E(UB3LYP) =  -41.0244978171     A.U. after    7 cycles
 SCF Done:  E(UB3LYP) =  -41.0244986474     A.U. after    7 cycles
 SCF Done:  E(UB3LYP) =  -41.0244986524     A.U. after    5 cycles
 Optimization completed.
    -- Stationary point found.
 SCF Done:  E(UB3LYP) =  -41.0192959323     A.U. after    9 cycles
 SCF Done:  E(UB3LYP) =  -41.0193796254     A.U. after    9 cycles
 SCF Done:  E(UB3LYP) =  -41.0193852010     A.U. after    9 cycles
 Optimization completed.
 SCF Done:  E(UB3LYP) =  -41.0221713479     A.U. after    9 cycles
 SCF Done:  E(UB3LYP) =  -41.0221719997     A.U. after    7 cycles
 SCF Done:  E(UB3LYP) =  -41.0222156678     A.U. after    9 cycles
 SCF Done:  E(UB3LYP) =  -41.0222161984     A.U. after    7 cycles
 SCF Done:  E(UB3LYP) =  -41.0222168794     A.U. after    9 cycles
 SCF Done:  E(UB3LYP) =  -41.0222171695     A.U. after    7 cycles
 SCF Done:  E(UB3LYP) =  -41.0221894541     A.U. after    9 cycles
 SCF Done:  E(UB3LYP) =  -41.0221896241     A.U. after    7 cycles
    -- Stationary point found.
 SCF Done:  E(UB3LYP) =  -41.0221422037     A.U. after    9 cycles
 SCF Done:  E(UB3LYP) =  -41.0221423287     A.U. after    7 cycles
 Optimization completed.
    -- Stationary point found.

                         Z-Matrix orientation:
 ---------------------------------------------------------------------
 Center     Atomic      Atomic             Coordinates (Angstroms)
 Number     Number       Type             X           Y           Z
 ---------------------------------------------------------------------
      1          6           0        0.000000    0.000000    0.000000
      2          1           0        0.000000    0.000000    1.081963
      3          1           0        0.937119    0.000000   -0.540787
      4          1           0       -0.936333   -0.039103   -0.540734
      5          1           0       -0.041066    3.092486   -0.029544
      6         -1           0        0.038254    3.092891    0.999103
      7          1           0       -0.050238    3.836050   -0.036898
 ---------------------------------------------------------------------

 Alpha  occ. eigenvalues --  -10.19542  -0.68374  -0.42620  -0.41803  -0.41802
 Alpha  occ. eigenvalues --   -0.22772
 Alpha virt. eigenvalues --    0.10286   0.11990   0.18014   0.18014   0.51323
 Alpha virt. eigenvalues --    0.53678   0.53679   0.60683   0.71886   0.88748
 Alpha virt. eigenvalues --    0.88749   0.94077   1.11065   1.43308   1.43309

  Beta  occ. eigenvalues --  -10.18153  -0.64307  -0.42554  -0.40808  -0.40808
  Beta virt. eigenvalues --   -0.05671   0.11045   0.13364   0.18554   0.18554
  Beta virt. eigenvalues --    0.54446   0.54451   0.54680   0.64970   0.74009
  Beta virt. eigenvalues --    0.89094   0.89095   0.96649   1.11476   1.47918

 Mulliken charges and spin densities:
               1          2
     1  C   -0.368722   1.134438
     2  H    0.125468  -0.047878
     3  H    0.125471  -0.047879
     4  H    0.125455  -0.047880
     5  H    0.005479  -0.000462
     6  H   -0.013151   0.009660
 Sum of Mulliken charges =  -0.00000   1.00000

 Dipole moment (field-independent basis, Debye):
    X=              0.0026    Y=             -0.1783    Z=              0.0018  Tot=              0.1783
 Quadrupole moment (field-independent basis, Debye-Ang):
   XX=             -9.0295   YY=            -10.6056   ZZ=             -9.0289
   XY=              0.0334   XZ=             -0.0005   YZ=              0.0189

 Normal termination of Gaussian 09 at Fri Sep 13 17:54:20 2024.
