 Gaussian 09, Revision D.01,
 Gaussian 09:  EM64L-G09RevD.01 24-Apr-2013

 ----------------------------------------------------------------------
 #p B3LYP/6-31g(d,p) opt=Z-Matrix nosym temperature=300 pop=full gfinpu
 t
 ----------------------------------------------------------------------

 ---------------------------
 ch4+h to ch3+h2 pushing hc5
 ---------------------------
 Symbolic Z-matrix:
 Charge =  0 Multiplicity = 2

 SCF Done:  E(UB3LYP) =  -41.0244942079     A.U. after   11 cycles
 SCF Done:  E(UB3LYP) =  -41.0244958071     A.U. after    6 cycles
 SCF Done:  E(UB3LYP) =  -41.0244961580     A.U. after    6 cycles
 SCF Done:  E(UB3LYP) =  -41.0244968204     A.U. after    6 cycles
 SCF Done:  E(UB3LYP) =  -41.0244978171     A.U. after    7 cycles
 SCF Done:  E(UB3LYP) =  -41.0244986474     A.U. after    7 cycles
 SCF Done:  E(UB3LYP) =  -41.0244986524     A.U. after    5 cycles
 Optimization completed.
    -- Stationary point found.
 SCF Done:  E(UB3LYP) =  -41.0192959323     A.U. after    9 cycles
 SCF Done:  E(UB3LYP) =  -41.0193796254     A.U. after    9 cycles
 SCF Done:  E(UB3LYP) =  -41.0193852010     A.U. after    9 cycles
 Optimization completed.
 SCF Done:  E(UB3LYP) =  -41.0204939140     A.U. after   10 cycles
 SCF Done:  E(UB3LYP) =  -41.0204942696     A.U. after    7 cycles
 SCF Done:  E(UB3LYP) =  -41.0211196898     A.U. after   10 cycles
 SCF Done:  E(UB3LYP) =  -41.0211291513     A.U. after   10 cycles
 SCF Done:  E(UB3LYP) =  -41.0211293251     A.U. after    7 cycles
 SCF Done:  E(UB3LYP) =  -41.0215725106     A.U. after   10 cycles
 SCF Done:  E(UB3LYP) =  -41.0215775405     A.U. after    9 cycles
    -- Stationary point found.
 SCF Done:  E(UB3LYP) =  -41.0218762886     A.U. after    9 cycles
 SCF Done:  E(UB3LYP) =  -41.0218784106     A.U. after    7 cycles
 SCF Done:  E(UB3LYP) =  -41.0218784704     A.U. after    6 cycles
 Optimization completed.
    -- Stationary point found.

                         Z-Matrix orientation:
 ---------------------------------------------------------------------
 Center     Atomic      Atomic             Coordinates (Angstroms)
 Number     Number       Type             X           Y           Z
 ---------------------------------------------------------------------
      1          6           0        0.000000    0.000000    0.000000
      2          1           0        0.000000    0.000000    1.082013
      3          1           0        0.937619    0.000000   -0.540019
      4          1           0       -0.933918   -0.084576   -0.539829
      5          1           0       -0.092009    2.490476   -0.060102
      6         -1           0       -0.013377    2.507719    0.968453
      7          1           0       -0.119203    3.236840   -0.078828
 ---------------------------------------------------------------------

 Alpha  occ. eigenvalues --  -10.19674  -0.68586  -0.42356  -0.41956  -0.41954
 Alpha  occ. eigenvalues --   -0.22802
 Alpha virt. eigenvalues --    0.10814   0.13200   0.17897   0.17899   0.53376
 Alpha virt. eigenvalues --    0.53445   0.53449   0.59586   0.80604   0.88603
 Alpha virt. eigenvalues --    0.88606   0.96666   1.16191   1.43101   1.43105

  Beta  occ. eigenvalues --  -10.18288  -0.64552  -0.41997  -0.40969  -0.40966
  Beta virt. eigenvalues --   -0.06018   0.12173   0.14588   0.18441   0.18443
  Beta virt. eigenvalues --    0.54218   0.54222   0.56449   0.64051   0.82669
  Beta virt. eigenvalues --    0.88957   0.88960   0.99388   1.16521   1.47664

 Mulliken charges and spin densities:
               1          2
     1  C   -0.367959   1.115528
     2  H    0.128269  -0.046955
     3  H    0.128286  -0.046953
     4  H    0.128224  -0.046964
     5  H    0.002795  -0.006483
     6  H   -0.019615   0.031827
 Sum of Mulliken charges =  -0.00000   1.00000

 Dipole moment (field-independent basis, Debye):
    X=              0.0120    Y=             -0.3105    Z=              0.0077  Tot=              0.3108
 Quadrupole moment (field-independent basis, Debye-Ang):
   XX=             -9.0257   YY=            -10.8873   ZZ=             -9.0231
   XY=              0.0824   XZ=             -0.0024   YZ=              0.0479

 Normal termination of Gaussian 09 at Fri Sep 13 16:40:26 2024.
