 Gaussian 09, Revision D.01,
 Gaussian 09:  EM64L-G09RevD.01 24-Apr-2013

 -----------------------------
 #p B3LYP/6-31+g(d,p) opt freq
 -----------------------------

 -----------
 ch3coo- gas
 -----------
 Symbolic Z-matrix:
 Charge = -1 Multiplicity = 1

 SCF Done:  E(RB3LYP) =  -228.522006539     A.U. after   14 cycles
 SCF Done:  E(RB3LYP) =  -228.540823605     A.U. after   11 cycles
 SCF Done:  E(RB3LYP) =  -228.543140549     A.U. after   11 cycles
 SCF Done:  E(RB3LYP) =  -228.543461437     A.U. after   10 cycles
 SCF Done:  E(RB3LYP) =  -228.543473834     A.U. after    9 cycles
 SCF Done:  E(RB3LYP) =  -228.543474904     A.U. after    8 cycles
 Optimization completed.
    -- Stationary point found.
 Normal termination of Gaussian 09 at Tue Sep 17 19:29:51 2024.

 ----------------------------------------------------------------------
 #P Geom=AllCheck Guess=TCheck SCRF=Check GenChk RB3LYP/6-31+G(d,p) Fre
 q
 ----------------------------------------------------------------------

 Structure from the checkpoint file:  "/g100_scratch/userexternal/ecabiati/g16_14420039/Gau-4812.chk"
 -----------
 ch3coo- gas
 -----------
 Charge = -1 Multiplicity = 1

                         Standard orientation:
 ---------------------------------------------------------------------
 Center     Atomic      Atomic             Coordinates (Angstroms)
 Number     Number       Type             X           Y           Z
 ---------------------------------------------------------------------
      1          6           0        0.000000    0.209032    0.000000
      2          8           0        1.115821    0.797722    0.000000
      3          8           0       -1.157997    0.711810    0.000000
      4          6           0        0.041147   -1.354173   -0.000000
      5          1           0        1.069005   -1.733231   -0.000000
      6          1           0       -0.489240   -1.736094    0.882252
      7          1           0       -0.489240   -1.736094   -0.882252
 ---------------------------------------------------------------------

 SCF Done:  E(RB3LYP) =  -228.543474904     A.U. after    1 cycles

 The electronic state is 1-A'.
 Alpha  occ. eigenvalues --  -18.89909 -18.89725 -10.08149 -10.00904  -0.82166
 Alpha  occ. eigenvalues --   -0.73696  -0.53587  -0.30700  -0.25169  -0.24321
 Alpha  occ. eigenvalues --   -0.22704  -0.19071  -0.16610  -0.05295  -0.04165
 Alpha  occ. eigenvalues --   -0.03424
 Alpha virt. eigenvalues --    0.14287   0.19000   0.19091   0.19260   0.22103
 Alpha virt. eigenvalues --    0.22872   0.22966   0.24795   0.28149   0.33930
 Alpha virt. eigenvalues --    0.34957   0.38283   0.40961   0.41104   0.42231

 Mulliken charges:
               1
     1  C    0.421294
     2  O   -0.645796
     3  O   -0.633278
     4  C   -0.516122
     5  H    0.125331
     6  H    0.124286
     7  H    0.124286
 Sum of Mulliken charges =  -1.00000

 Dipole moment (field-independent basis, Debye):
    X=              0.1252    Y=             -3.9036    Z=              0.0000  Tot=              3.9056
 Quadrupole moment (field-independent basis, Debye-Ang):
   XX=            -36.5614   YY=            -33.2753   ZZ=            -26.0205
   XY=             -0.1274   XZ=             -0.0000   YZ=             -0.0000

  Exact polarizability:  46.904   0.737  51.108   0.000  -0.000  30.581
 Approx polarizability:  68.712   1.731  57.894  -0.000  -0.000  39.554

                      1                      2                      3
                     A"                     A'                     A"
 Frequencies --     20.0473               434.4173               610.6858
 Red. masses --      1.0853                 3.0373                 2.3484
 Frc consts  --      0.0003                 0.3377                 0.5160
 IR Inten    --  0.3842E-01              1.461                  6.167

                      4                      5                      6
                     A'                     A'                     A'
 Frequencies --    614.1905               864.0533               997.9087
 Red. masses --      5.7626                 7.4279                 1.4486
 Frc consts  --      1.2808                 3.2674                 0.8499
 IR Inten    --   7.179                  63.23                  9.257

                      7                      8                      9
                     A"                     A'                     A'
 Frequencies --   1029.5407              1326.0646              1358.3139
 Red. masses --      1.9116                 1.3828                 6.1228
 Frc consts  --      1.1938                 1.4326                 6.6558
 IR Inten    --   2.290                  7.817                  333.7

                     10                     11                     12
                     A'                     A"                     A'
 Frequencies --   1468.3559              1481.8159              1661.3574
 Red. masses --      1.0712                 1.0535                10.0253
 Frc consts  --      1.3608                 1.3630                16.3032
 IR Inten    --   20.92                  3.529                  667.5

                     13                     14                     15
                     A'                     A"                     A'
 Frequencies --   3008.1017              3071.8496              3092.6813
 Red. masses --      1.0328                 1.1003                 1.1037
 Frc consts  --      5.5065                 6.1174                 6.2195
 IR Inten    --   49.06                  55.42                  65.69

 - Thermochemistry -
 -------------------
 Temperature   298.150 Kelvin.  Pressure   1.00000 Atm.
 Atom     1 has atomic number  6 and mass  12.00000

 Molecular mass:    59.01330 amu.
 Principal axes and moments of inertia in atomic units:
                           1         2         3
     Eigenvalues --   159.18956 182.27521 330.25935
           X            0.03668   0.99933   0.00000
           Y            0.99933  -0.03668   0.00000
           Z           -0.00000  -0.00000   1.00000
 This molecule is an asymmetric top.
 Rotational symmetry number  1.
 Rotational temperatures (Kelvin)      0.54409     0.47518     0.26226
 Rotational constants (GHZ):          11.33706     9.90119     5.46462
 Zero-point vibrational energy     125843.5 (Joules/Mol)
                                   30.07731 (Kcal/Mol)
 Warning -- explicit consideration of   4 degrees of freedom as
           vibrations may cause significant error
 Vibrational temperatures:     28.84   625.03   878.64   883.68  1243.18
          (Kelvin)           1435.77  1481.28  1907.91  1954.31  2112.63
                             2132.00  2390.32  4327.98  4419.70  4449.67

 Zero-point correction=                           0.047931 (Hartree/Particle)
 Thermal correction to Energy=                    0.052411
 Thermal correction to Enthalpy=                  0.053355
 Thermal correction to Gibbs Free Energy=         0.019778
 Sum of electronic and zero-point Energies=           -228.495544
 Sum of electronic and thermal Energies=              -228.491064
 Sum of electronic and thermal Enthalpies=            -228.490120
 Sum of electronic and thermal Free Energies=         -228.523697

                     E (Thermal)             CV                S
                      KCal/Mol        Cal/Mol-Kelvin    Cal/Mol-Kelvin
 Total                   32.888             13.094             70.669
 Electronic               0.000              0.000              0.000
 Translational            0.889              2.981             38.146
 Rotational               0.889              2.981             23.776
 Vibrational             31.111              7.132              8.748
 Vibration     1          0.593              1.986              6.630
 Vibration     2          0.795              1.395              0.844
 Vibration     3          0.970              1.009              0.432
 Vibration     4          0.974              1.002              0.426

 Optimization completed.
    -- Stationary point found.
 Normal termination of Gaussian 09 at Tue Sep 17 19:29:55 2024.
