 Gaussian 09, Revision D.01,
 Gaussian 09:  EM64L-G09RevD.01 24-Apr-2013

 ------------------------
 #p B3LYP/6-31+g(d,p) opt
 ------------------------

 -----------
 ch3coo- gas
 -----------
 Symbolic Z-matrix:
 Charge = -1 Multiplicity = 1

 SCF Done:  E(RB3LYP) =  -228.522006539     A.U. after   14 cycles
 SCF Done:  E(RB3LYP) =  -228.540823605     A.U. after   11 cycles
 SCF Done:  E(RB3LYP) =  -228.543140549     A.U. after   11 cycles
 SCF Done:  E(RB3LYP) =  -228.543461437     A.U. after   10 cycles
 SCF Done:  E(RB3LYP) =  -228.543473834     A.U. after    9 cycles
 SCF Done:  E(RB3LYP) =  -228.543474904     A.U. after    8 cycles
 Optimization completed.
    -- Stationary point found.

                         Standard orientation:
 ---------------------------------------------------------------------
 Center     Atomic      Atomic             Coordinates (Angstroms)
 Number     Number       Type             X           Y           Z
 ---------------------------------------------------------------------
      1          6           0        0.000000    0.209032    0.000000
      2          8           0        1.115821    0.797722    0.000000
      3          8           0       -1.157997    0.711810   -0.000000
      4          6           0        0.041147   -1.354173   -0.000000
      5          1           0        1.069005   -1.733231   -0.000000
      6          1           0       -0.489240   -1.736094    0.882252
      7          1           0       -0.489240   -1.736094   -0.882252
 ---------------------------------------------------------------------

 The electronic state is 1-A'.
 Alpha  occ. eigenvalues --  -18.89909 -18.89725 -10.08149 -10.00904  -0.82166
 Alpha  occ. eigenvalues --   -0.73696  -0.53587  -0.30700  -0.25169  -0.24321
 Alpha  occ. eigenvalues --   -0.22704  -0.19071  -0.16610  -0.05295  -0.04165
 Alpha  occ. eigenvalues --   -0.03424
 Alpha virt. eigenvalues --    0.14287   0.19000   0.19091   0.19260   0.22103
 Alpha virt. eigenvalues --    0.22872   0.22966   0.24795   0.28149   0.33930
 Alpha virt. eigenvalues --    0.34957   0.38283   0.40961   0.41104   0.42231

 Mulliken charges:
               1
     1  C    0.421293
     2  O   -0.645796
     3  O   -0.633278
     4  C   -0.516122
     5  H    0.125331
     6  H    0.124286
     7  H    0.124286
 Sum of Mulliken charges =  -1.00000

 Dipole moment (field-independent basis, Debye):
    X=              0.1252    Y=             -3.9036    Z=             -0.0000  Tot=              3.9056
 Quadrupole moment (field-independent basis, Debye-Ang):
   XX=            -36.5614   YY=            -33.2753   ZZ=            -26.0204
   XY=             -0.1274   XZ=              0.0000   YZ=              0.0000

 Normal termination of Gaussian 09 at Tue Sep 17 13:08:45 2024.
