 Gaussian 09, Revision D.01,
 Gaussian 09:  EM64L-G09RevD.01 24-Apr-2013

 ------------------------------------------------------
 #p B3LYP/6-31+g(d,p) opt freq scrf=(smd,solvent=water)
 ------------------------------------------------------

 -----------
 ch3coo- sol
 -----------
 Symbolic Z-matrix:
 Charge = -1 Multiplicity = 1

 SCF Done:  E(RB3LYP) =  -228.643843719     A.U. after   11 cycles
 SCF Done:  E(RB3LYP) =  -228.655326122     A.U. after   11 cycles
 SCF Done:  E(RB3LYP) =  -228.657686541     A.U. after   11 cycles
 SCF Done:  E(RB3LYP) =  -228.658038227     A.U. after   10 cycles
 SCF Done:  E(RB3LYP) =  -228.658065055     A.U. after    8 cycles
 SCF Done:  E(RB3LYP) =  -228.658062803     A.U. after    8 cycles
 Optimization completed.
    -- Stationary point found.
 Normal termination of Gaussian 09 at Tue Sep 17 19:30:36 2024.

 ----------------------------------------------------------------------
 #P Geom=AllCheck Guess=TCheck SCRF=Check GenChk RB3LYP/6-31+G(d,p) Fre
 q
 ----------------------------------------------------------------------

 Structure from the checkpoint file:  "/g100_scratch/userexternal/ecabiati/g16_14420040/Gau-17310.chk"
 -----------
 ch3coo- sol
 -----------
 Charge = -1 Multiplicity = 1

                         Standard orientation:
 ---------------------------------------------------------------------
 Center     Atomic      Atomic             Coordinates (Angstroms)
 Number     Number       Type             X           Y           Z
 ---------------------------------------------------------------------
      1          6           0        0.000000    0.173134    0.000000
      2          8           0        1.098133    0.816864   -0.000000
      3          8           0       -1.151814    0.717879    0.000000
      4          6           0        0.050138   -1.352513   -0.000000
      5          1           0        1.076082   -1.726787   -0.000000
      6          1           0       -0.473731   -1.737442    0.881544
      7          1           0       -0.473731   -1.737442   -0.881544
 ---------------------------------------------------------------------

 SCF Done:  E(RB3LYP) =  -228.658062803     A.U. after    1 cycles

 The electronic state is 1-A'.
 Alpha  occ. eigenvalues --  -19.10900 -19.10739 -10.28612 -10.17081  -1.03058
 Alpha  occ. eigenvalues --   -0.94108  -0.71263  -0.50586  -0.43205  -0.43192
 Alpha  occ. eigenvalues --   -0.43076  -0.37906  -0.35578  -0.26756  -0.25720
 Alpha  occ. eigenvalues --   -0.24555
 Alpha virt. eigenvalues --    0.01783   0.03733   0.04880   0.05838   0.06804
 Alpha virt. eigenvalues --    0.08603   0.08688   0.09750   0.14031   0.16726
 Alpha virt. eigenvalues --    0.18082   0.21453   0.22782   0.24593   0.25588

 Mulliken charges:
               1
     1  C    0.542210
     2  O   -0.782459
     3  O   -0.775655
     4  C   -0.506086
     5  H    0.163144
     6  H    0.179423
     7  H    0.179423
 Sum of Mulliken charges =  -1.00000

 Dipole moment (field-independent basis, Debye):
    X=              0.1869    Y=             -6.1119    Z=              0.0000  Tot=              6.1147
 Quadrupole moment (field-independent basis, Debye-Ang):
   XX=            -36.6732   YY=            -30.7433   ZZ=            -25.1402
   XY=             -0.1374   XZ=             -0.0000   YZ=              0.0000

  Exact polarizability:  60.059   1.369  49.644  -0.000   0.000  35.506
 Approx polarizability:  60.936   1.629  45.339   0.000   0.000  35.226

                      1                      2                      3
                     A"                     A'                     A"
 Frequencies --     75.0604               464.1074               627.9599
 Red. masses --      1.0858                 3.1832                 2.4015
 Frc consts  --      0.0036                 0.4040                 0.5579
 IR Inten    --  0.1709                  1.821                  15.12

                      4                      5                      6
                     A'                     A'                     A'
 Frequencies --    635.1127               908.7359              1032.3454
 Red. masses --      6.5877                 6.4558                 1.4529
 Frc consts  --      1.5656                 3.1411                 0.9123
 IR Inten    --   46.97                  20.07                  31.14

                      7                      8                      9
                     A"                     A'                     A'
 Frequencies --   1055.7000              1356.5874              1399.2380
 Red. masses --      1.8971                 1.8608                 2.3627
 Frc consts  --      1.2457                 2.0177                 2.7254
 IR Inten    --   16.20                  97.80                  355.1

                     10                     11                     12
                     A'                     A"                     A'
 Frequencies --   1448.6433              1463.6230              1500.1207
 Red. masses --      1.5462                 1.0451                 2.9889
 Frc consts  --      1.9118                 1.3191                 3.9629
 IR Inten    --   513.0                  12.95                  952.4

                     13                     14                     15
                     A'                     A"                     A'
 Frequencies --   3051.1967              3118.2266              3144.2107
 Red. masses --      1.0362                 1.1011                 1.1045
 Frc consts  --      5.6839                 6.3080                 6.4334
 IR Inten    --   12.05                  17.84                  37.49

 - Thermochemistry -
 -------------------
 Temperature   298.150 Kelvin.  Pressure   1.00000 Atm.
 Atom     1 has atomic number  6 and mass  12.00000

 Molecular mass:    59.01330 amu.
 Principal axes and moments of inertia in atomic units:
                           1         2         3
     Eigenvalues --   156.13580 183.67666 328.62503
           X            0.01374   0.99991   0.00000
           Y            0.99991  -0.01374   0.00000
           Z            0.00000  -0.00000   1.00000
 This molecule is an asymmetric top.
 Rotational symmetry number  1.
 Rotational temperatures (Kelvin)      0.55473     0.47156     0.26356
 Rotational constants (GHZ):          11.55879     9.82564     5.49179
 Zero-point vibrational energy     127287.9 (Joules/Mol)
                                   30.42253 (Kcal/Mol)
 Warning -- explicit consideration of   2 degrees of freedom as
           vibrations may cause significant error
 Vibrational temperatures:    108.00   667.75   903.49   913.78  1307.47
          (Kelvin)           1485.31  1518.91  1951.82  2013.19  2084.27
                             2105.82  2158.34  4389.99  4486.43  4523.81

 Zero-point correction=                           0.048481 (Hartree/Particle)
 Thermal correction to Energy=                    0.052784
 Thermal correction to Enthalpy=                  0.053728
 Thermal correction to Gibbs Free Energy=         0.021493
 Sum of electronic and zero-point Energies=           -228.609581
 Sum of electronic and thermal Energies=              -228.605279
 Sum of electronic and thermal Enthalpies=            -228.604335
 Sum of electronic and thermal Free Energies=         -228.636570

                     E (Thermal)             CV                S
                      KCal/Mol        Cal/Mol-Kelvin    Cal/Mol-Kelvin
 Total                   33.122             12.818             67.844
 Electronic               0.000              0.000              0.000
 Translational            0.889              2.981             38.146
 Rotational               0.889              2.981             23.759
 Vibrational             31.345              6.857              5.939
 Vibration     1          0.599              1.966              4.016
 Vibration     2          0.822              1.330              0.754

 Optimization completed.
    -- Stationary point found.
 Normal termination of Gaussian 09 at Tue Sep 17 19:30:42 2024.
