 Gaussian 09, Revision D.01,
 Gaussian 09:  EM64L-G09RevD.01 24-Apr-2013

 -------------------------------------------------
 #p B3LYP/6-31+g(d,p) opt scrf=(smd,solvent=water)
 -------------------------------------------------

 -----------
 ch3coo- sol
 -----------
 Symbolic Z-matrix:
 Charge = -1 Multiplicity = 1

 SCF Done:  E(RB3LYP) =  -228.643843719     A.U. after   11 cycles
 SCF Done:  E(RB3LYP) =  -228.655326122     A.U. after   11 cycles
 SCF Done:  E(RB3LYP) =  -228.657686541     A.U. after   11 cycles
 SCF Done:  E(RB3LYP) =  -228.658038227     A.U. after   10 cycles
 SCF Done:  E(RB3LYP) =  -228.658065055     A.U. after    8 cycles
 SCF Done:  E(RB3LYP) =  -228.658062803     A.U. after    8 cycles
 Optimization completed.
    -- Stationary point found.

                         Standard orientation:
 ---------------------------------------------------------------------
 Center     Atomic      Atomic             Coordinates (Angstroms)
 Number     Number       Type             X           Y           Z
 ---------------------------------------------------------------------
      1          6           0        0.000000    0.173134   -0.000000
      2          8           0        1.098133    0.816864   -0.000000
      3          8           0       -1.151814    0.717879    0.000000
      4          6           0        0.050138   -1.352513    0.000000
      5          1           0        1.076082   -1.726787    0.000000
      6          1           0       -0.473731   -1.737442    0.881544
      7          1           0       -0.473731   -1.737442   -0.881544
 ---------------------------------------------------------------------

 The electronic state is 1-A'.
 Alpha  occ. eigenvalues --  -19.10900 -19.10739 -10.28612 -10.17081  -1.03058
 Alpha  occ. eigenvalues --   -0.94108  -0.71263  -0.50586  -0.43205  -0.43192
 Alpha  occ. eigenvalues --   -0.43076  -0.37906  -0.35578  -0.26756  -0.25720
 Alpha  occ. eigenvalues --   -0.24555
 Alpha virt. eigenvalues --    0.01783   0.03733   0.04880   0.05838   0.06804
 Alpha virt. eigenvalues --    0.08603   0.08688   0.09750   0.14031   0.16726
 Alpha virt. eigenvalues --    0.18082   0.21453   0.22782   0.24593   0.25588

 Mulliken charges:
               1
     1  C    0.542209
     2  O   -0.782458
     3  O   -0.775655
     4  C   -0.506086
     5  H    0.163144
     6  H    0.179423
     7  H    0.179423
 Sum of Mulliken charges =  -1.00000

 Dipole moment (field-independent basis, Debye):
    X=              0.1869    Y=             -6.1119    Z=              0.0000  Tot=              6.1147
 Quadrupole moment (field-independent basis, Debye-Ang):
   XX=            -36.6732   YY=            -30.7433   ZZ=            -25.1402
   XY=             -0.1374   XZ=             -0.0000   YZ=             -0.0000

 Normal termination of Gaussian 09 at Tue Sep 17 13:12:26 2024.
