 Gaussian 09, Revision A.02,
 Gaussian 09:  EM64L-G09RevA.02 11-Jun-2009

 -----------------------------------------
 #p B3LYP/6-31+g(d,p) opt pop=full gfinput
 -----------------------------------------

 -------
 propane
 -------
 Symbolic Z-matrix:
 Charge =  0 Multiplicity = 1

 SCF Done:  E(RB3LYP) =  -119.131734902     A.U. after   10 cycles
 SCF Done:  E(RB3LYP) =  -119.145789670     A.U. after    8 cycles
 SCF Done:  E(RB3LYP) =  -119.157799071     A.U. after    9 cycles
 SCF Done:  E(RB3LYP) =  -119.159096139     A.U. after    9 cycles
 SCF Done:  E(RB3LYP) =  -119.159149984     A.U. after    8 cycles
 SCF Done:  E(RB3LYP) =  -119.159151839     A.U. after    7 cycles
 Optimization completed.
    -- Stationary point found.

                         Standard orientation:
 ---------------------------------------------------------------------
 Center     Atomic      Atomic             Coordinates (Angstroms)
 Number     Number       Type             X           Y           Z
 ---------------------------------------------------------------------
      1          6           0        0.000000    0.586358    0.000000
      2          6           0        1.278513   -0.259956   -0.000000
      3          6           0       -1.278494   -0.259793   -0.000000
      4          1           0        0.000101    1.246277    0.877556
      5          1           0        0.000101    1.246277   -0.877556
      6          1           0        2.176441    0.367604    0.000000
      7          1           0       -2.176466    0.367745    0.000000
      8          1           0        1.323686   -0.906949    0.884404
      9          1           0        1.323686   -0.906949   -0.884404
     10          1           0       -1.323833   -0.906828   -0.884384
     11          1           0       -1.323833   -0.906828    0.884384
 ---------------------------------------------------------------------

 The electronic state is 1-A'.
 Alpha  occ. eigenvalues --  -10.18441 -10.17578 -10.17577  -0.77986  -0.68128
 Alpha  occ. eigenvalues --   -0.58540  -0.45641  -0.43609  -0.39844  -0.38133
 Alpha  occ. eigenvalues --   -0.33896  -0.33763  -0.32885
 Alpha virt. eigenvalues --    0.01505   0.03021   0.03498   0.04558   0.06969
 Alpha virt. eigenvalues --    0.07712   0.08257   0.08566   0.09309   0.11344
 Alpha virt. eigenvalues --    0.12340   0.14922   0.19605   0.20078   0.20179

 Mulliken atomic charges:
              1
     1  C   -0.154308
     2  C   -0.488343
     3  C   -0.488356
     4  H    0.137858
     5  H    0.137858
     6  H    0.142945
     7  H    0.142943
     8  H    0.142352
     9  H    0.142352
    10  H    0.142349
    11  H    0.142349
 Sum of Mulliken atomic charges =   0.00000

 Dipole moment (field-independent basis, Debye):
    X=             -0.0000    Y=              0.0866    Z=             -0.0000  Tot=              0.0866
 Quadrupole moment (field-independent basis, Debye-Ang):
   XX=            -22.5535   YY=            -22.2057   ZZ=            -21.7153
   XY=              0.0005   XZ=             -0.0000   YZ=             -0.0000

 Normal termination of Gaussian 09 at Tue Aug 13 00:54:10 2024.
