 Gaussian 09, Revision A.02,
 Gaussian 09:  EM64L-G09RevA.02 11-Jun-2009

 ------------------------
 #p scan pop=full gfinput
 ------------------------

 -------
 propane
 -------
 Symbolic Z-matrix:
 Charge =  0 Multiplicity = 1

 SCF Done:  E(RHF) =  -116.845011500     A.U. after    9 cycles

 The electronic state is 1-A'.
 Alpha  occ. eigenvalues --  -11.03784 -11.02973 -11.02631  -1.01153  -0.89291
 Alpha  occ. eigenvalues --   -0.76716  -0.60479  -0.56176  -0.53580  -0.48206
 Alpha  occ. eigenvalues --   -0.43364  -0.43166  -0.41701
 Alpha virt. eigenvalues --    0.57329   0.61630   0.62479   0.70821   0.72117
 Alpha virt. eigenvalues --    0.72835   0.78579   0.80478   0.82882   0.86076

 Mulliken atomic charges:
              1
     1  C   -0.092139
     2  C   -0.183624
     3  C   -0.184220
     4  H    0.048787
     5  H    0.048787
     6  H    0.049153
     7  H    0.050843
     8  H    0.064226
     9  H    0.064226
    10  H    0.066981
    11  H    0.066981
 Sum of Mulliken atomic charges =  -0.00000

 Dipole moment (field-independent basis, Debye):
    X=             -0.0203    Y=              0.1229    Z=             -0.0000  Tot=              0.1246
 Quadrupole moment (field-independent basis, Debye-Ang):
   XX=            -20.3635   YY=            -21.0526   ZZ=            -19.6313
   XY=              0.0825   XZ=             -0.0000   YZ=             -0.0000

 SCF Done:  E(RHF) =  -116.828444306     A.U. after   10 cycles
 SCF Done:  E(RHF) =  -116.775245514     A.U. after   10 cycles
 SCF Done:  E(RHF) =  -116.675872808     A.U. after   11 cycles
 SCF Done:  E(RHF) =  -116.523571024     A.U. after   12 cycles
 SCF Done:  E(RHF) =  -116.188914014     A.U. after   12 cycles
 SCF Done:  E(RHF) =  -115.155515701     A.U. after   12 cycles
 SCF Done:  E(RHF) =  -115.507259423     A.U. after   12 cycles
 SCF Done:  E(RHF) =  -116.276915331     A.U. after   13 cycles
 SCF Done:  E(RHF) =  -116.384458451     A.U. after   12 cycles
 SCF Done:  E(RHF) =  -116.276915331     A.U. after   13 cycles
 SCF Done:  E(RHF) =  -115.507259423     A.U. after   12 cycles
 SCF Done:  E(RHF) =  -115.155515701     A.U. after   12 cycles
 SCF Done:  E(RHF) =  -116.188914014     A.U. after   12 cycles
 SCF Done:  E(RHF) =  -116.523571024     A.U. after   12 cycles
 SCF Done:  E(RHF) =  -116.675872808     A.U. after   11 cycles
 SCF Done:  E(RHF) =  -116.775245514     A.U. after   10 cycles
 SCF Done:  E(RHF) =  -116.828444306     A.U. after   10 cycles
 SCF Done:  E(RHF) =  -116.845011500     A.U. after    9 cycles

                         Standard orientation:
 ---------------------------------------------------------------------
 Center     Atomic      Atomic             Coordinates (Angstroms)
 Number     Number       Type             X           Y           Z
 ---------------------------------------------------------------------
      1          6           0       -0.001022    0.557853   -0.042907
      2          6           0       -1.265401   -0.295097    0.007105
      3          6           0        1.270670   -0.285078   -0.012222
      4          1           0       -0.185815    1.452778   -0.648032
      5          1           0        0.141773    1.059183    0.921195
      6          1           0       -2.166567    0.315902   -0.015291
      7          1           0        2.166535    0.333020   -0.048312
      8          1           0       -1.421093   -0.808843   -0.946132
      9          1           0       -1.406575   -0.715841    1.007045
     10          1           0        1.430388   -0.704633    0.985425
     11          1           0        1.415870   -0.797635   -0.967752
 ---------------------------------------------------------------------

 SCF Done:  E(RHF) =  -116.828444306     A.U. after   10 cycles
 Normal termination of Gaussian 09 at Tue Aug 13 01:14:51 2024.
