 Gaussian 09, Revision D.01,
 Gaussian 09:  EM64L-G09RevD.01 24-Apr-2013

 -----------------------------
 #p B3LYP/6-31+g(d,p) nmr=giao
 -----------------------------

 ---------------------
 tetramethylsilane nmr
 ---------------------
 Symbolic Z-matrix:
 Charge =  0 Multiplicity = 1

                         Standard orientation:
 ---------------------------------------------------------------------
 Center     Atomic      Atomic             Coordinates (Angstroms)
 Number     Number       Type             X           Y           Z
 ---------------------------------------------------------------------
      1         14           0        0.000000    0.000000    0.000000
      2          6           0       -1.094367   -1.094367    1.094367
      3          6           0        1.094367    1.094367    1.094367
      4          6           0        1.094367   -1.094367   -1.094367
      5          6           0       -1.094367    1.094367   -1.094367
      6          1           0        1.740980    1.740980    0.489490
      7          1           0        0.489490    1.740980    1.740980
      8          1           0        1.740980    0.489490    1.740980
      9          1           0       -1.740980   -1.740980    0.489490
     10          1           0       -0.489490   -1.740980    1.740980
     11          1           0       -1.740980   -0.489490    1.740980
     12          1           0       -1.740980    0.489490   -1.740980
     13          1           0       -1.740980    1.740980   -0.489490
     14          1           0       -0.489490    1.740980   -1.740980
     15          1           0        1.740980   -0.489490   -1.740980
     16          1           0        1.740980   -1.740980   -0.489490
     17          1           0        0.489490   -1.740980   -1.740980
 ---------------------------------------------------------------------

 SCF Done:  E(RB3LYP) =  -449.218422868     A.U. after    8 cycles

      1  Si   Isotropic =   405.4513   Anisotropy =     0.0000

      2  C    Isotropic =   192.5585   Anisotropy =     9.0416

      3  C    Isotropic =   192.5585   Anisotropy =     9.0416

      4  C    Isotropic =   192.5585   Anisotropy =     9.0416

      5  C    Isotropic =   192.5585   Anisotropy =     9.0416

      6  H    Isotropic =    31.6496   Anisotropy =     9.7522

      7  H    Isotropic =    31.6496   Anisotropy =     9.7522

      8  H    Isotropic =    31.6496   Anisotropy =     9.7522

      9  H    Isotropic =    31.6496   Anisotropy =     9.7522

     10  H    Isotropic =    31.6496   Anisotropy =     9.7522

     11  H    Isotropic =    31.6496   Anisotropy =     9.7522

     12  H    Isotropic =    31.6496   Anisotropy =     9.7522

     13  H    Isotropic =    31.6496   Anisotropy =     9.7522

     14  H    Isotropic =    31.6496   Anisotropy =     9.7522

     15  H    Isotropic =    31.6496   Anisotropy =     9.7522

     16  H    Isotropic =    31.6496   Anisotropy =     9.7522

     17  H    Isotropic =    31.6496   Anisotropy =     9.7522

 The electronic state is 1-A1.
 Alpha  occ. eigenvalues --  -66.11971 -10.16211 -10.16211 -10.16211 -10.16211
 Alpha  occ. eigenvalues --   -5.26397  -3.62271  -3.62271  -3.62271  -0.71868
 Alpha  occ. eigenvalues --   -0.67635  -0.67635  -0.67635  -0.45770  -0.41207
 Alpha  occ. eigenvalues --   -0.41207  -0.41207  -0.39710  -0.39710  -0.37965
 Alpha  occ. eigenvalues --   -0.37965  -0.37965  -0.29650  -0.29650  -0.29650
 Alpha virt. eigenvalues --   -0.01190   0.01950   0.01950   0.01950   0.05691
 Alpha virt. eigenvalues --    0.05691   0.05691   0.07270   0.07369   0.07369
 Alpha virt. eigenvalues --    0.10224   0.10224   0.10224   0.10994   0.10994

 Mulliken charges:
               1
     1  Si   1.002110
     2  C   -0.723859
     3  C   -0.723859
     4  C   -0.723859
     5  C   -0.723859
     6  H    0.157777
     7  H    0.157777
     8  H    0.157777
     9  H    0.157777
    10  H    0.157777
    11  H    0.157777
    12  H    0.157777
    13  H    0.157777
    14  H    0.157777
    15  H    0.157777
    16  H    0.157777
    17  H    0.157777
 Sum of Mulliken charges =   0.00000

 Dipole moment (field-independent basis, Debye):
    X=             -0.0000    Y=             -0.0000    Z=              0.0000  Tot=              0.0000
 Quadrupole moment (field-independent basis, Debye-Ang):
   XX=            -43.0539   YY=            -43.0539   ZZ=            -43.0539
   XY=              0.0000   XZ=             -0.0000   YZ=              0.0000

 Normal termination of Gaussian 09 at Sun Sep  1 13:18:55 2024.
