 Gaussian 09, Revision D.01,
 Gaussian 09:  EM64L-G09RevD.01 24-Apr-2013

 ---------------------------------------------------
 #p B3LYP/6-31+g(d,p) opt(internal) pop=full gfinput
 ---------------------------------------------------

 ---------------------
 tetramethylsilane opt
 ---------------------
 Symbolic Z-matrix:
 Charge =  0 Multiplicity = 1

 SCF Done:  E(RB3LYP) =  -449.212138860     A.U. after    8 cycles
 SCF Done:  E(RB3LYP) =  -449.218072761     A.U. after    8 cycles
 SCF Done:  E(RB3LYP) =  -449.218405014     A.U. after    7 cycles
 SCF Done:  E(RB3LYP) =  -449.218422849     A.U. after    6 cycles
 Optimization completed.
    -- Stationary point found.

                         Standard orientation:
 ---------------------------------------------------------------------
 Center     Atomic      Atomic             Coordinates (Angstroms)
 Number     Number       Type             X           Y           Z
 ---------------------------------------------------------------------
      1         14           0        0.000000    0.000000    0.000000
      2          6           0       -1.094346   -1.094346    1.094346
      3          6           0        1.094346    1.094346    1.094346
      4          6           0        1.094346   -1.094346   -1.094346
      5          6           0       -1.094346    1.094346   -1.094346
      6          1           0        1.740987    1.740987    0.489444
      7          1           0        0.489444    1.740987    1.740987
      8          1           0        1.740987    0.489444    1.740987
      9          1           0       -1.740987   -1.740987    0.489444
     10          1           0       -0.489444   -1.740987    1.740987
     11          1           0       -1.740987   -0.489444    1.740987
     12          1           0       -1.740987    0.489444   -1.740987
     13          1           0       -1.740987    1.740987   -0.489444
     14          1           0       -0.489444    1.740987   -1.740987
     15          1           0        1.740987   -0.489444   -1.740987
     16          1           0        1.740987   -1.740987   -0.489444
     17          1           0        0.489444   -1.740987   -1.740987
 ---------------------------------------------------------------------

 The electronic state is 1-A1.
 Alpha  occ. eigenvalues --  -66.11970 -10.16212 -10.16212 -10.16212 -10.16212
 Alpha  occ. eigenvalues --   -5.26396  -3.62270  -3.62270  -3.62270  -0.71868
 Alpha  occ. eigenvalues --   -0.67634  -0.67634  -0.67634  -0.45770  -0.41207
 Alpha  occ. eigenvalues --   -0.41207  -0.41207  -0.39710  -0.39710  -0.37964
 Alpha  occ. eigenvalues --   -0.37964  -0.37964  -0.29650  -0.29650  -0.29650
 Alpha virt. eigenvalues --   -0.01190   0.01950   0.01950   0.01950   0.05691
 Alpha virt. eigenvalues --    0.05691   0.05691   0.07270   0.07369   0.07369
 Alpha virt. eigenvalues --    0.10223   0.10223   0.10223   0.10994   0.10994

 Mulliken charges:
               1
     1  Si   1.002059
     2  C   -0.723835
     3  C   -0.723835
     4  C   -0.723835
     5  C   -0.723835
     6  H    0.157773
     7  H    0.157773
     8  H    0.157773
     9  H    0.157773
    10  H    0.157773
    11  H    0.157773
    12  H    0.157773
    13  H    0.157773
    14  H    0.157773
    15  H    0.157773
    16  H    0.157773
    17  H    0.157773
 Sum of Mulliken charges =   0.00000

 Dipole moment (field-independent basis, Debye):
    X=             -0.0000    Y=              0.0000    Z=             -0.0000  Tot=              0.0000
 Quadrupole moment (field-independent basis, Debye-Ang):
   XX=            -43.0544   YY=            -43.0544   ZZ=            -43.0544
   XY=              0.0000   XZ=             -0.0000   YZ=              0.0000

 Normal termination of Gaussian 09 at Thu Sep 12 00:17:13 2024.
