 Gaussian 09, Revision A.02,
 Gaussian 09:  EM64L-G09RevA.02 11-Jun-2009

 -----------------------------------------
 #p b3lyp/6-31+G opt freq pop=full gfinput
 -----------------------------------------

 -------------------------
 NH3 with 6-31+G basis set
 -------------------------
 Symbolic Z-matrix:
 Charge =  0 Multiplicity = 1

 SCF Done:  E(RB3LYP) =  -56.5311413237     A.U. after   10 cycles
 SCF Done:  E(RB3LYP) =  -56.5409077962     A.U. after   10 cycles
 SCF Done:  E(RB3LYP) =  -56.5431266962     A.U. after   10 cycles
 SCF Done:  E(RB3LYP) =  -56.5431409543     A.U. after    7 cycles
 Optimization completed.
    -- Stationary point found.
 Normal termination of Gaussian 09 at Sun Sep 15 16:41:13 2024.

 ------------------------------------------------------------------
 #P Geom=AllCheck Guess=TCheck SCRF=Check GenChk RB3LYP/6-31+G Freq
 ------------------------------------------------------------------

 NH3 with 6-31+G basis set
 -------------------------
 Redundant internal coordinates taken from checkpoint file:
 /home/ospite/Desktop/MMfP/Project9/NH3/reactants/NH3/Gau-31243.chk
 Charge =  0 Multiplicity = 1

                         Standard orientation:
 ---------------------------------------------------------------------
 Center     Atomic      Atomic             Coordinates (Angstroms)
 Number     Number       Type             X           Y           Z
 ---------------------------------------------------------------------
      1          7           0        0.000000    0.000000    0.000034
      2          1           0        0.000000    0.868107    0.501194
      3          1           0       -0.000000    0.000000   -1.002623
      4          1           0       -0.000000   -0.868107    0.501194
 ---------------------------------------------------------------------

 SCF Done:  E(RB3LYP) =  -56.5431409543     A.U. after    1 cycles

 The electronic state is 1-A1.
 Alpha  occ. eigenvalues --  -14.30521  -0.84362  -0.49016  -0.49009  -0.24024
 Alpha virt. eigenvalues --    0.02941   0.08464   0.08465   0.11756   0.21147
 Alpha virt. eigenvalues --    0.21156   0.21709   0.85183   0.85187   0.88291
 Alpha virt. eigenvalues --    1.03965   1.07039   1.07054   1.17963

 Mulliken atomic charges:
              1
     1  N   -1.072929
     2  H    0.357643
     3  H    0.357642
     4  H    0.357643
 Sum of Mulliken atomic charges =  -0.00000

 Dipole moment (field-independent basis, Debye):
    X=             -0.0000    Y=              0.0000    Z=             -0.0002  Tot=              0.0002
 Quadrupole moment (field-independent basis, Debye-Ang):
   XX=            -10.5469   YY=             -5.8061   ZZ=             -5.8056
   XY=              0.0000   XZ=             -0.0000   YZ=              0.0000

  Exact polarizability:  12.513  -0.000   8.734   0.000  -0.000   8.737
 Approx polarizability:  11.811   0.000   9.960  -0.000   0.000   9.964

 ******    1 imaginary frequencies (negative Signs) ******

                     1                      2                      3
                    B1                     A1                     B2
 Frequencies --  -269.6460              1632.9974              1633.6632
 Red. masses --     1.2067                 1.0937                 1.0936
 Frc consts  --     0.0517                 1.7183                 1.7197
 IR Inten    --   750.3324                68.9414                68.9881

                     4                      5                      6
                    A1                     A1                     B2
 Frequencies --  3615.2870              3836.2441              3838.4204
 Red. masses --     1.0078                 1.1030                 1.1031
 Frc consts  --     7.7611                 9.5641                 9.5753
 IR Inten    --     0.0017                38.2777                38.3323

 - Thermochemistry -
 -------------------
 Temperature   298.150 Kelvin.  Pressure   1.00000 Atm.
 Atom     1 has atomic number  7 and mass  14.00307

 Molecular mass:    17.02655 amu.
 Principal axes and moments of inertia in atomic units:
                           1         2         3
     Eigenvalues --     5.42450   5.42602  10.85052
           X           -0.00000   0.00000   1.00000
           Y            0.00000   1.00000  -0.00000
           Z            1.00000  -0.00000   0.00000
 This molecule is an asymmetric top.
 Rotational symmetry number  2.
 Rotational temperatures (Kelvin)     15.96715    15.96266     7.98245
 Rotational constants (GHZ):         332.70191   332.60836   166.32756
    1 imaginary frequencies ignored.
 Zero-point vibrational energy      87067.9 (Joules/Mol)
                                   20.80972 (Kcal/Mol)
 Vibrational temperatures:   2349.52  2350.47  5201.59  5519.49  5522.62
          (Kelvin)

 Zero-point correction=                           0.033162 (Hartree/Particle)
 Thermal correction to Energy=                    0.036001
 Thermal correction to Enthalpy=                  0.036945
 Thermal correction to Gibbs Free Energy=         0.014799
 Sum of electronic and zero-point Energies=            -56.509979
 Sum of electronic and thermal Energies=               -56.507140
 Sum of electronic and thermal Enthalpies=             -56.506196
 Sum of electronic and thermal Free Energies=          -56.528342

                     E (Thermal)             CV                S
                      KCal/Mol        Cal/Mol-Kelvin    Cal/Mol-Kelvin
 Total                   22.591              6.055             46.609
 Electronic               0.000              0.000              0.000
 Translational            0.889              2.981             34.441
 Rotational               0.889              2.981             12.155
 Vibrational             20.813              0.093              0.013

 Optimization completed.
    -- Stationary point found.
 Normal termination of Gaussian 09 at Sun Sep 15 16:41:20 2024.
