 Gaussian 09, Revision A.02,
 Gaussian 09:  EM64L-G09RevA.02 11-Jun-2009

 ----------------------------------------------
 #p b3lyp/6-31+g(d,p) opt freq pop=full gfinput
 ----------------------------------------------

 ------------------------------
 NH3 with 6-31+g(d,p) basis set
 ------------------------------
 Symbolic Z-matrix:
 Charge =  0 Multiplicity = 1

 SCF Done:  E(RB3LYP) =  -56.5662326571     A.U. after   10 cycles
 SCF Done:  E(RB3LYP) =  -56.5669741282     A.U. after    9 cycles
 SCF Done:  E(RB3LYP) =  -56.5669844677     A.U. after    7 cycles
 Optimization completed.
    -- Stationary point found.
 Normal termination of Gaussian 09 at Sun Sep 15 20:58:04 2024.

 ----------------------------------------------------------------------
 #P Geom=AllCheck Guess=TCheck SCRF=Check GenChk RB3LYP/6-31+G(d,p) Fre
 q
 ----------------------------------------------------------------------

 NH3 with 6-31+g(d,p) basis set
 ------------------------------
 Redundant internal coordinates taken from checkpoint file:
 /home/ospite/Desktop/MMfP/Project9/NH3/reactants/NH3/Gau-2682.chk
 Charge =  0 Multiplicity = 1

                         Standard orientation:
 ---------------------------------------------------------------------
 Center     Atomic      Atomic             Coordinates (Angstroms)
 Number     Number       Type             X           Y           Z
 ---------------------------------------------------------------------
      1          7           0       -0.000000    0.107989    0.000000
      2          1           0        0.474834   -0.252071    0.822379
      3          1           0       -0.949668   -0.251783   -0.000000
      4          1           0        0.474834   -0.252071   -0.822379
 ---------------------------------------------------------------------

 SCF Done:  E(RB3LYP) =  -56.5669844677     A.U. after    1 cycles

 The electronic state is 1-A'.
 Alpha  occ. eigenvalues --  -14.32488  -0.85773  -0.46936  -0.46932  -0.26805
 Alpha virt. eigenvalues --    0.01621   0.08946   0.08947   0.11852   0.19566
 Alpha virt. eigenvalues --    0.19570   0.25193   0.82830   0.82831   0.87918
 Alpha virt. eigenvalues --    0.91425   0.91432   1.05966   1.12410   1.41172

 Mulliken atomic charges:
              1
     1  N   -0.880713
     2  H    0.293565
     3  H    0.293583
     4  H    0.293565
 Sum of Mulliken atomic charges =   0.00000

 Dipole moment (field-independent basis, Debye):
    X=             -0.0002    Y=             -1.7614    Z=             -0.0000  Tot=              1.7614
 Quadrupole moment (field-independent basis, Debye-Ang):
   XX=             -6.3057   YY=             -9.8440   ZZ=             -6.3063
   XY=             -0.0008   XZ=             -0.0000   YZ=              0.0000

  Exact polarizability:  10.226   0.001  12.363  -0.000   0.000  10.226
 Approx polarizability:  12.432  -0.000  13.070  -0.000   0.000  12.431

                     1                      2                      3
                    A'                     A"                     A'
 Frequencies --   995.8161              1673.0462              1673.2702
 Red. masses --     1.1841                 1.0685                 1.0685
 Frc consts  --     0.6918                 1.7621                 1.7626
 IR Inten    --   241.5389                28.7767                28.7711

                     4                      5                      6
                    A'                     A"                     A'
 Frequencies --  3486.8987              3630.1303              3630.5925
 Red. masses --     1.0241                 1.0913                 1.0913
 Frc consts  --     7.3363                 8.4732                 8.4756
 IR Inten    --     2.6039                 3.9852                 4.0005

 - Thermochemistry -
 -------------------
 Temperature   298.150 Kelvin.  Pressure   1.00000 Atm.
 Atom     1 has atomic number  7 and mass  14.00307

 Molecular mass:    17.02655 amu.
 Principal axes and moments of inertia in atomic units:
                           1         2         3
     Eigenvalues --     6.01866   6.01934   9.73682
           X            1.00000  -0.00000   0.00027
           Y           -0.00027   0.00000   1.00000
           Z            0.00000   1.00000  -0.00000
 This molecule is an asymmetric top.
 Rotational symmetry number  1.
 Rotational temperatures (Kelvin)     14.39089    14.38924     8.89549
 Rotational constants (GHZ):         299.85786   299.82356   185.35216
 Zero-point vibrational energy      90256.8 (Joules/Mol)
                                   21.57189 (Kcal/Mol)
 Vibrational temperatures:   1432.76  2407.14  2407.46  5016.86  5222.94
          (Kelvin)           5223.61

 Zero-point correction=                           0.034377 (Hartree/Particle)
 Thermal correction to Energy=                    0.037252
 Thermal correction to Enthalpy=                  0.038196
 Thermal correction to Gibbs Free Energy=         0.015305
 Sum of electronic and zero-point Energies=            -56.532607
 Sum of electronic and thermal Energies=               -56.529733
 Sum of electronic and thermal Enthalpies=             -56.528789
 Sum of electronic and thermal Free Energies=          -56.551680

                     E (Thermal)             CV                S
                      KCal/Mol        Cal/Mol-Kelvin    Cal/Mol-Kelvin
 Total                   23.376              6.424             48.178
 Electronic               0.000              0.000              0.000
 Translational            0.889              2.981             34.441
 Rotational               0.889              2.981             13.631
 Vibrational             21.598              0.463              0.106

 Optimization completed.
    -- Stationary point found.
 Normal termination of Gaussian 09 at Sun Sep 15 20:58:23 2024.
