 Gaussian 09, Revision A.02,
 Gaussian 09:  EM64L-G09RevA.02 11-Jun-2009

 ---------------------------------------------------------------
 #p mp2/STO-3G opt freq symmetry=(follow,pg=Td) pop=full gfinput
 ---------------------------------------------------------------

 --------------------------------------------------
 methane with imposed symmetry and STO-3G basis set
 --------------------------------------------------
 Symbolic Z-matrix:
 Charge =  0 Multiplicity = 1

 SCF Done:  E(RHF) =  -39.7267000493     A.U. after    6 cycles
 E2 =    -0.5610302107D-01 EUMP2 =    -0.39782803070332D+02
 SCF Done:  E(RHF) =  -39.7257282698     A.U. after    5 cycles
 E2 =    -0.5732397383D-01 EUMP2 =    -0.39783052243651D+02
 SCF Done:  E(RHF) =  -39.7259913535     A.U. after    5 cycles
 E2 =    -0.5707727120D-01 EUMP2 =    -0.39783068624678D+02
 Optimization completed.
    -- Stationary point found.
 Normal termination of Gaussian 09 at Sun Aug 18 00:51:29 2024.

 --------------------------------------------------------------------
 #P Geom=AllCheck Guess=TCheck SCRF=Check GenChk RMP2(FC)/STO-3G Freq
 --------------------------------------------------------------------

 methane with imposed symmetry and STO-3G basis set
 --------------------------------------------------
 Redundant internal coordinates taken from checkpoint file:
 /home/ospite/Desktop/MMfP/Project6/CH4/g09/MP2/Gau-19967.chk
 Charge =  0 Multiplicity = 1

                         Standard orientation:
 ---------------------------------------------------------------------
 Center     Atomic      Atomic             Coordinates (Angstroms)
 Number     Number       Type             X           Y           Z
 ---------------------------------------------------------------------
      1          6           0        0.000000    0.000000    0.000000
      2          1           0        0.634662    0.634662    0.634662
      3          1           0       -0.634662   -0.634662    0.634662
      4          1           0       -0.634662    0.634662   -0.634662
      5          1           0        0.634662   -0.634662   -0.634662
 ---------------------------------------------------------------------

 SCF Done:  E(RHF) =  -39.7259913535     A.U. after    1 cycles
 E2 =    -0.5707727120D-01 EUMP2 =    -0.39783068624678D+02
 E2 =    -0.5707727120D-01 EUMP2 =    -0.39783068624678D+02

 The electronic state is 1-A1.
 Alpha  occ. eigenvalues --  -11.03115  -0.90375  -0.51412  -0.51412  -0.51412
 Alpha virt. eigenvalues --    0.70488   0.70488   0.70488   0.73669

 Mulliken atomic charges:
              1
     1  C   -0.245108
     2  H    0.061277
     3  H    0.061277
     4  H    0.061277
     5  H    0.061277
 Sum of Mulliken atomic charges =  -0.00000

 Dipole moment (field-independent basis, Debye):
    X=              0.0000    Y=              0.0000    Z=              0.0000  Tot=              0.0000
 Quadrupole moment (field-independent basis, Debye-Ang):
   XX=             -7.8424   YY=             -7.8424   ZZ=             -7.8424
   XY=              0.0000   XZ=              0.0000   YZ=              0.0000

  Exact polarizability:   5.505  -0.000   5.505   0.000   0.000   5.505
 Approx polarizability:   4.575  -0.000   4.575   0.000   0.000   4.575

                     1                      2                      3
                    T2                     T2                     T2
 Frequencies --  1577.0133              1577.0133              1577.0133
 Red. masses --     1.1731                 1.1731                 1.1731
 Frc consts  --     1.7190                 1.7190                 1.7190
 IR Inten    --     5.4414                 5.4414                 5.4414

                     4                      5                      6
                     E                      E                     A1
 Frequencies --  1809.5516              1809.5516              3343.5125
 Red. masses --     1.0078                 1.0078                 1.0078
 Frc consts  --     1.9444                 1.9444                 6.6381
 IR Inten    --     0.0000                 0.0000                 0.0000

                     7                      8                      9
                    T2                     T2                     T2
 Frequencies --  3600.8873              3600.8873              3600.8873
 Red. masses --     1.1068                 1.1068                 1.1068
 Frc consts  --     8.4556                 8.4556                 8.4556
 IR Inten    --     1.3412                 1.3412                 1.3412

 - Thermochemistry -
 -------------------
 Temperature   298.150 Kelvin.  Pressure   1.00000 Atm.
 Atom     1 has atomic number  6 and mass  12.00000

 Molecular mass:    16.03130 amu.
 Principal axes and moments of inertia in atomic units:
                           1         2         3
     Eigenvalues --    11.59733  11.59733  11.59733
           X            0.93419   0.00000   0.35679
           Y           -0.35679   0.00000   0.93419
           Z            0.00000   1.00000  -0.00000
 This molecule is a spherical top.
 Rotational symmetry number 12.
 Rotational temperatures (Kelvin)      7.46843     7.46843     7.46843
 Rotational constants (GHZ):         155.61693   155.61693   155.61693
 Zero-point vibrational energy     134557.9 (Joules/Mol)
                                   32.16010 (Kcal/Mol)
 Vibrational temperatures:   2268.97  2268.97  2268.97  2603.54  2603.54
          (Kelvin)           4810.56  5180.87  5180.87  5180.87

 Zero-point correction=                           0.051250 (Hartree/Particle)
 Thermal correction to Energy=                    0.054096
 Thermal correction to Enthalpy=                  0.055040
 Thermal correction to Gibbs Free Energy=         0.033915
 Sum of electronic and zero-point Energies=            -39.731818
 Sum of electronic and thermal Energies=               -39.728972
 Sum of electronic and thermal Enthalpies=             -39.728028
 Sum of electronic and thermal Free Energies=          -39.749154

                     E (Thermal)             CV                S
                      KCal/Mol        Cal/Mol-Kelvin    Cal/Mol-Kelvin
 Total                   33.946              6.182             44.463
 Electronic               0.000              0.000              0.000
 Translational            0.889              2.981             34.261
 Rotational               0.889              2.981             10.170
 Vibrational             32.168              0.220              0.032

 Optimization completed.
    -- Stationary point found.
 Normal termination of Gaussian 09 at Sun Aug 18 00:51:32 2024.
