 Gaussian 09, Revision A.02,
 Gaussian 09:  EM64L-G09RevA.02 11-Jun-2009

 ----------------------------------------------------------------
 #p mp2/cc-pVQZ opt freq symmetry=(follow,pg=Td) pop=full gfinput
 ----------------------------------------------------------------

 ------------------------------------------------------
 methane with imposed symmetry Td and cc-pVQZ basis set
 ------------------------------------------------------
 Symbolic Z-matrix:
 Charge =  0 Multiplicity = 1

 SCF Done:  E(RHF) =  -40.2161107672     A.U. after    9 cycles
 E2 =    -0.2101075684D+00 EUMP2 =    -0.40426218335633D+02
 SCF Done:  E(RHF) =  -40.2162849798     A.U. after    7 cycles
 E2 =    -0.2100210488D+00 EUMP2 =    -0.40426306028565D+02
 Optimization completed.
    -- Stationary point found.

 The electronic state is 1-A1.
 Alpha  occ. eigenvalues --  -11.20334  -0.94479  -0.54625  -0.54625  -0.54625
 Alpha virt. eigenvalues --    0.11558   0.19989   0.19989   0.19989   0.27700
 Alpha virt. eigenvalues --    0.27700   0.27700   0.48554   0.53491   0.53491
 Alpha virt. eigenvalues --    0.53491   0.54122   0.54122   0.63187   0.82886

 Mulliken atomic charges:
              1
     1  C   -0.267287
     2  H    0.066822
     3  H    0.066822
     4  H    0.066822
     5  H    0.066822
 Sum of Mulliken atomic charges =   0.00000

 Dipole moment (field-independent basis, Debye):
    X=             -0.0000    Y=              0.0000    Z=             -0.0000  Tot=              0.0000
 Quadrupole moment (field-independent basis, Debye-Ang):
   XX=             -8.3995   YY=             -8.3995   ZZ=             -8.3995
   XY=              0.0000   XZ=             -0.0000   YZ=             -0.0000

 Normal termination of Gaussian 09 at Sun Aug 18 13:50:00 2024.

 ---------------------------------------------------------------------
 #P Geom=AllCheck Guess=TCheck SCRF=Check GenChk RMP2(FC)/CC-pVQZ Freq
 ---------------------------------------------------------------------

 methane with imposed symmetry Td and cc-pVQZ basis set
 ------------------------------------------------------
 Redundant internal coordinates taken from checkpoint file:
 /home/ospite/Desktop/MMfP/Project6/CH4/g09/MP2/Gau-6434.chk
 Charge =  0 Multiplicity = 1

                         Standard orientation:
 ---------------------------------------------------------------------
 Center     Atomic      Atomic             Coordinates (Angstroms)
 Number     Number       Type             X           Y           Z
 ---------------------------------------------------------------------
      1          6           0        0.000000    0.000000    0.000000
      2          1           0        0.625857    0.625857    0.625857
      3          1           0       -0.625857   -0.625857    0.625857
      4          1           0       -0.625857    0.625857   -0.625857
      5          1           0        0.625857   -0.625857   -0.625857
 ---------------------------------------------------------------------

 SCF Done:  E(RHF) =  -40.2162849798     A.U. after    1 cycles
 Error termination via Lnk1e in /programs/64bit/g09/g09-gfortran/bin/l906.exe at Sun Aug 18 13:50:07 2024.
