 Gaussian 09, Revision A.02,
 Gaussian 09:  EM64L-G09RevA.02 11-Jun-2009

 ----------------------------------------------------------------
 #p mp2/6-31++G opt freq symmetry=(follow,pg=Td) pop=full gfinput
 ----------------------------------------------------------------

 -----------------------------------------------------------
 methane with imposed symmetry and hf/6-31++G basis function
 -----------------------------------------------------------
 Symbolic Z-matrix:
 Charge =  0 Multiplicity = 1

 SCF Done:  E(RHF) =  -40.1810627105     A.U. after    8 cycles
 E2 =    -0.9985249491D-01 EUMP2 =    -0.40280915205366D+02
 SCF Done:  E(RHF) =  -40.1807065020     A.U. after    7 cycles
 E2 =    -0.1003006480D+00 EUMP2 =    -0.40281007150062D+02
 Optimization completed.
    -- Stationary point found.
 Normal termination of Gaussian 09 at Sat Aug 17 14:53:22 2024.

 ---------------------------------------------------------------------
 #P Geom=AllCheck Guess=TCheck SCRF=Check GenChk RMP2(FC)/6-31++G Freq
 ---------------------------------------------------------------------

 methane with imposed symmetry and hf/6-31++G basis function
 -----------------------------------------------------------
 Redundant internal coordinates taken from checkpoint file:
 /home/ospite/Desktop/MMfP/Project6/CH4/g09/MP2/Gau-4346.chk
 Charge =  0 Multiplicity = 1

                         Standard orientation:
 ---------------------------------------------------------------------
 Center     Atomic      Atomic             Coordinates (Angstroms)
 Number     Number       Type             X           Y           Z
 ---------------------------------------------------------------------
      1          6           0        0.000000    0.000000    0.000000
      2          1           0        0.632898    0.632898    0.632898
      3          1           0       -0.632898   -0.632898    0.632898
      4          1           0       -0.632898    0.632898   -0.632898
      5          1           0        0.632898   -0.632898   -0.632898
 ---------------------------------------------------------------------

 SCF Done:  E(RHF) =  -40.1807065020     A.U. after    1 cycles
 E2 =    -0.1003006480D+00 EUMP2 =    -0.40281007150024D+02
 E2 =    -0.1003006480D+00 EUMP2 =    -0.40281007150024D+02

 The electronic state is 1-A1.
 Alpha  occ. eigenvalues --  -11.21293  -0.94571  -0.54343  -0.54343  -0.54343
 Alpha virt. eigenvalues --    0.04348   0.08192   0.08192   0.08192   0.16953
 Alpha virt. eigenvalues --    0.16953   0.16953   0.21574   0.35647   0.35647
 Alpha virt. eigenvalues --    0.35647   0.48170   0.92266   0.92266   0.92266

 Mulliken atomic charges:
              1
     1  C   -0.700412
     2  H    0.175103
     3  H    0.175103
     4  H    0.175103
     5  H    0.175103
 Sum of Mulliken atomic charges =   0.00000

 Dipole moment (field-independent basis, Debye):
    X=              0.0000    Y=              0.0000    Z=              0.0000  Tot=              0.0000
 Quadrupole moment (field-independent basis, Debye-Ang):
   XX=             -8.5873   YY=             -8.5873   ZZ=             -8.5873
   XY=             -0.0000   XZ=              0.0000   YZ=              0.0000

  Exact polarizability:  13.406   0.000  13.406  -0.000  -0.000  13.406
 Approx polarizability:   9.976  -0.000   9.976  -0.000  -0.000   9.976

                     1                      2                      3
                    T2                     T2                     T2
 Frequencies --  1432.8855              1432.8855              1432.8855
 Red. masses --     1.1831                 1.1831                 1.1831
 Frc consts  --     1.4312                 1.4312                 1.4312
 IR Inten    --    21.9453                21.9453                21.9453

                     4                      5                      6
                     E                      E                     A1
 Frequencies --  1586.7976              1586.7976              3049.4650
 Red. masses --     1.0078                 1.0078                 1.0078
 Frc consts  --     1.4951                 1.4951                 5.5218
 IR Inten    --     0.0000                 0.0000                 0.0000

                     7                      8                      9
                    T2                     T2                     T2
 Frequencies --  3177.7464              3177.7464              3177.7464
 Red. masses --     1.0981                 1.0981                 1.0981
 Frc consts  --     6.5331                 6.5331                 6.5331
 IR Inten    --    33.5623                33.5623                33.5623

 - Thermochemistry -
 -------------------
 Temperature   298.150 Kelvin.  Pressure   1.00000 Atm.
 Atom     1 has atomic number  6 and mass  12.00000

 Molecular mass:    16.03130 amu.
 Principal axes and moments of inertia in atomic units:
                           1         2         3
     Eigenvalues --    11.53294  11.53294  11.53294
           X            1.00000  -0.00000   0.00000
           Y            0.00000   1.00000   0.00000
           Z            0.00000   0.00000   1.00000
 This molecule is a spherical top.
 Rotational symmetry number 12.
 Rotational temperatures (Kelvin)      7.51012     7.51012     7.51012
 Rotational constants (GHZ):         156.48574   156.48574   156.48574
 Zero-point vibrational energy     119955.3 (Joules/Mol)
                                   28.67000 (Kcal/Mol)
 Vibrational temperatures:   2061.60  2061.60  2061.60  2283.04  2283.04
          (Kelvin)           4387.49  4572.06  4572.06  4572.06

 Zero-point correction=                           0.045689 (Hartree/Particle)
 Thermal correction to Energy=                    0.048547
 Thermal correction to Enthalpy=                  0.049492
 Thermal correction to Gibbs Free Energy=         0.028359
 Sum of electronic and zero-point Energies=            -40.235319
 Sum of electronic and thermal Energies=               -40.232460
 Sum of electronic and thermal Enthalpies=             -40.231516
 Sum of electronic and thermal Free Energies=          -40.252649

                     E (Thermal)             CV                S
                      KCal/Mol        Cal/Mol-Kelvin    Cal/Mol-Kelvin
 Total                   30.464              6.356             44.478
 Electronic               0.000              0.000              0.000
 Translational            0.889              2.981             34.261
 Rotational               0.889              2.981             10.154
 Vibrational             28.687              0.394              0.063

 Optimization completed.
    -- Stationary point found.
 Normal termination of Gaussian 09 at Sat Aug 17 14:53:28 2024.
