 Gaussian 09, Revision A.02,
 Gaussian 09:  EM64L-G09RevA.02 11-Jun-2009

 --------------------------------------------------------------
 #p mp2/6-31G opt freq symmetry=(follow,pg=Td) pop=full gfinput
 --------------------------------------------------------------

 ------------------------------------------------------------
 methane with imposed symmetry Td and hf/6-31G basis function
 ------------------------------------------------------------
 Symbolic Z-matrix:
 Charge =  0 Multiplicity = 1

 SCF Done:  E(RHF) =  -40.1803847455     A.U. after    8 cycles
 E2 =    -0.9866804668D-01 EUMP2 =    -0.40279052792166D+02
 SCF Done:  E(RHF) =  -40.1800589445     A.U. after    7 cycles
 E2 =    -0.9907003104D-01 EUMP2 =    -0.40279128975542D+02
 Optimization completed.
    -- Stationary point found.
 Normal termination of Gaussian 09 at Sat Aug 17 14:48:11 2024.

 -------------------------------------------------------------------
 #P Geom=AllCheck Guess=TCheck SCRF=Check GenChk RMP2(FC)/6-31G Freq
 -------------------------------------------------------------------

 methane with imposed symmetry Td and hf/6-31G basis function
 ------------------------------------------------------------
 Redundant internal coordinates taken from checkpoint file:
 /home/ospite/Desktop/MMfP/Project6/CH4/g09/MP2/Gau-4175.chk
 Charge =  0 Multiplicity = 1

                         Standard orientation:
 ---------------------------------------------------------------------
 Center     Atomic      Atomic             Coordinates (Angstroms)
 Number     Number       Type             X           Y           Z
 ---------------------------------------------------------------------
      1          6           0        0.000000    0.000000    0.000000
      2          1           0        0.632586    0.632586    0.632586
      3          1           0       -0.632586   -0.632586    0.632586
      4          1           0       -0.632586    0.632586   -0.632586
      5          1           0        0.632586   -0.632586   -0.632586
 ---------------------------------------------------------------------

 SCF Done:  E(RHF) =  -40.1800589445     A.U. after    1 cycles
 E2 =    -0.9907003106D-01 EUMP2 =    -0.40279128975564D+02
 E2 =    -0.9907003106D-01 EUMP2 =    -0.40279128975564D+02

 The electronic state is 1-A1.
 Alpha  occ. eigenvalues --  -11.21022  -0.94356  -0.54158  -0.54158  -0.54158
 Alpha virt. eigenvalues --    0.25342   0.32154   0.32154   0.32154   0.74600
 Alpha virt. eigenvalues --    0.74600   0.74600   1.21986   1.21986   1.21986
 Alpha virt. eigenvalues --    1.22978   1.32566

 Mulliken atomic charges:
              1
     1  C   -0.620718
     2  H    0.155179
     3  H    0.155179
     4  H    0.155179
     5  H    0.155179
 Sum of Mulliken atomic charges =  -0.00000

 Dipole moment (field-independent basis, Debye):
    X=              0.0000    Y=              0.0000    Z=              0.0000  Tot=              0.0000
 Quadrupole moment (field-independent basis, Debye-Ang):
   XX=             -8.4609   YY=             -8.4609   ZZ=             -8.4609
   XY=              0.0000   XZ=              0.0000   YZ=              0.0000

  Exact polarizability:  12.130  -0.000  12.130  -0.000   0.000  12.130
 Approx polarizability:   9.333  -0.000   9.333   0.000   0.000   9.333

                     1                      2                      3
                    T2                     T2                     T2
 Frequencies --  1441.8104              1441.8104              1441.8104
 Red. masses --     1.1828                 1.1828                 1.1828
 Frc consts  --     1.4487                 1.4487                 1.4487
 IR Inten    --    18.3558                18.3558                18.3558

                     4                      5                      6
                     E                      E                     A1
 Frequencies --  1620.0885              1620.0885              3060.9841
 Red. masses --     1.0078                 1.0078                 1.0078
 Frc consts  --     1.5585                 1.5585                 5.5636
 IR Inten    --     0.0000                 0.0000                 0.0000

                     7                      8                      9
                    T2                     T2                     T2
 Frequencies --  3192.1450              3192.1450              3192.1450
 Red. masses --     1.0983                 1.0983                 1.0983
 Frc consts  --     6.5940                 6.5940                 6.5940
 IR Inten    --    29.7404                29.7404                29.7404

 - Thermochemistry -
 -------------------
 Temperature   298.150 Kelvin.  Pressure   1.00000 Atm.
 Atom     1 has atomic number  6 and mass  12.00000

 Molecular mass:    16.03130 amu.
 Principal axes and moments of inertia in atomic units:
                           1         2         3
     Eigenvalues --    11.52158  11.52158  11.52158
           X           -0.07176   0.95238  -0.29634
           Y            0.94973  -0.02553  -0.31204
           Z            0.30475   0.30383   0.90267
 This molecule is a spherical top.
 Rotational symmetry number 12.
 Rotational temperatures (Kelvin)      7.51753     7.51753     7.51753
 Rotational constants (GHZ):         156.64005   156.64005   156.64005
 Zero-point vibrational energy     120840.9 (Joules/Mol)
                                   28.88168 (Kcal/Mol)
 Vibrational temperatures:   2074.44  2074.44  2074.44  2330.94  2330.94
          (Kelvin)           4404.07  4592.78  4592.78  4592.78

 Zero-point correction=                           0.046026 (Hartree/Particle)
 Thermal correction to Energy=                    0.048883
 Thermal correction to Enthalpy=                  0.049827
 Thermal correction to Gibbs Free Energy=         0.028698
 Sum of electronic and zero-point Energies=            -40.233103
 Sum of electronic and thermal Energies=               -40.230246
 Sum of electronic and thermal Enthalpies=             -40.229302
 Sum of electronic and thermal Free Energies=          -40.250431

                     E (Thermal)             CV                S
                      KCal/Mol        Cal/Mol-Kelvin    Cal/Mol-Kelvin
 Total                   30.675              6.335             44.471
 Electronic               0.000              0.000              0.000
 Translational            0.889              2.981             34.261
 Rotational               0.889              2.981             10.151
 Vibrational             28.897              0.373              0.059

 Optimization completed.
    -- Stationary point found.
 Normal termination of Gaussian 09 at Sat Aug 17 14:48:16 2024.
