 Gaussian 09, Revision A.02,
 Gaussian 09:  EM64L-G09RevA.02 11-Jun-2009

 ----------------------------------------------------------------
 #p mp2/cc-pVDZ opt freq symmetry=(follow,pg=Td) pop=full gfinput
 ----------------------------------------------------------------

 ------------------------------------------------------
 methane with imposed symmetry Td and cc-pVDZ basis set
 ------------------------------------------------------
 Symbolic Z-matrix:
 Charge =  0 Multiplicity = 1

 SCF Done:  E(RHF) =  -40.1987102928     A.U. after    8 cycles
 E2 =    -0.1612266238D+00 EUMP2 =    -0.40359936916617D+02
 SCF Done:  E(RHF) =  -40.1984767563     A.U. after    7 cycles
 E2 =    -0.1616973281D+00 EUMP2 =    -0.40360174084424D+02
 Optimization completed.
    -- Stationary point found.
 Normal termination of Gaussian 09 at Sun Aug 18 00:47:34 2024.

 ---------------------------------------------------------------------
 #P Geom=AllCheck Guess=TCheck SCRF=Check GenChk RMP2(FC)/CC-pVDZ Freq
 ---------------------------------------------------------------------

 methane with imposed symmetry Td and cc-pVDZ basis set
 ------------------------------------------------------
 Redundant internal coordinates taken from checkpoint file:
 /home/ospite/Desktop/MMfP/Project6/CH4/g09/MP2/Gau-19877.chk
 Charge =  0 Multiplicity = 1

                         Standard orientation:
 ---------------------------------------------------------------------
 Center     Atomic      Atomic             Coordinates (Angstroms)
 Number     Number       Type             X           Y           Z
 ---------------------------------------------------------------------
      1          6           0        0.000000    0.000000    0.000000
      2          1           0        0.635171    0.635171    0.635171
      3          1           0       -0.635171   -0.635171    0.635171
      4          1           0       -0.635171    0.635171   -0.635171
      5          1           0        0.635171   -0.635171   -0.635171
 ---------------------------------------------------------------------

 SCF Done:  E(RHF) =  -40.1984767563     A.U. after    1 cycles
 E2 =    -0.1616973282D+00 EUMP2 =    -0.40360174084496D+02
 E2 =    -0.1616973282D+00 EUMP2 =    -0.40360174084496D+02

 The electronic state is 1-A1.
 Alpha  occ. eigenvalues --  -11.22088  -0.93783  -0.54003  -0.54003  -0.54003
 Alpha virt. eigenvalues --    0.19173   0.27243   0.27243   0.27243   0.59006
 Alpha virt. eigenvalues --    0.59006   0.59006   0.88422   0.88422   0.88422
 Alpha virt. eigenvalues --    0.92151   1.13015   1.13015   1.25485   1.67775

 Mulliken atomic charges:
              1
     1  C   -0.155271
     2  H    0.038818
     3  H    0.038818
     4  H    0.038818
     5  H    0.038818
 Sum of Mulliken atomic charges =   0.00000

 Dipole moment (field-independent basis, Debye):
    X=              0.0000    Y=              0.0000    Z=              0.0000  Tot=              0.0000
 Quadrupole moment (field-independent basis, Debye-Ang):
   XX=             -8.3895   YY=             -8.3895   ZZ=             -8.3895
   XY=              0.0000   XZ=              0.0000   YZ=              0.0000

  Exact polarizability:  13.186  -0.000  13.186  -0.000  -0.000  13.186
 Approx polarizability:  10.732   0.000  10.732   0.000   0.000  10.732

                     1                      2                      3
                    T2                     T2                     T2
 Frequencies --  1339.6706              1339.6706              1339.6706
 Red. masses --     1.1782                 1.1782                 1.1782
 Frc consts  --     1.2458                 1.2458                 1.2458
 IR Inten    --    11.4236                11.4236                11.4236

                     4                      5                      6
                     E                      E                     A1
 Frequencies --  1565.6983              1565.6983              3076.9928
 Red. masses --     1.0078                 1.0078                 1.0078
 Frc consts  --     1.4556                 1.4556                 5.6220
 IR Inten    --     0.0000                 0.0000                 0.0000

                     7                      8                      9
                    T2                     T2                     T2
 Frequencies --  3227.9352              3227.9352              3227.9352
 Red. masses --     1.1023                 1.1023                 1.1023
 Frc consts  --     6.7673                 6.7673                 6.7673
 IR Inten    --    17.0885                17.0885                17.0885

 - Thermochemistry -
 -------------------
 Temperature   298.150 Kelvin.  Pressure   1.00000 Atm.
 Atom     1 has atomic number  6 and mass  12.00000

 Molecular mass:    16.03130 amu.
 Principal axes and moments of inertia in atomic units:
                           1         2         3
     Eigenvalues --    11.61595  11.61595  11.61595
           X            0.58133  -0.62533  -0.52060
           Y            0.75026   0.16433   0.64039
           Z            0.31490   0.76286  -0.56469
 This molecule is a spherical top.
 Rotational symmetry number 12.
 Rotational temperatures (Kelvin)      7.45646     7.45646     7.45646
 Rotational constants (GHZ):         155.36750   155.36750   155.36750
 Zero-point vibrational energy     119095.5 (Joules/Mol)
                                   28.46450 (Kcal/Mol)
 Vibrational temperatures:   1927.48  1927.48  1927.48  2252.69  2252.69
          (Kelvin)           4427.10  4644.27  4644.27  4644.27

 Zero-point correction=                           0.045361 (Hartree/Particle)
 Thermal correction to Energy=                    0.048230
 Thermal correction to Enthalpy=                  0.049174
 Thermal correction to Gibbs Free Energy=         0.028019
 Sum of electronic and zero-point Energies=            -40.314813
 Sum of electronic and thermal Energies=               -40.311944
 Sum of electronic and thermal Enthalpies=             -40.311000
 Sum of electronic and thermal Free Energies=          -40.332155

                     E (Thermal)             CV                S
                      KCal/Mol        Cal/Mol-Kelvin    Cal/Mol-Kelvin
 Total                   30.265              6.470             44.523
 Electronic               0.000              0.000              0.000
 Translational            0.889              2.981             34.261
 Rotational               0.889              2.981             10.175
 Vibrational             28.487              0.508              0.087

 Optimization completed.
    -- Stationary point found.
 Normal termination of Gaussian 09 at Sun Aug 18 00:47:42 2024.
