 Gaussian 09, Revision A.02,
 Gaussian 09:  EM64L-G09RevA.02 11-Jun-2009

 ---------------------------------------------------------------
 #p mp2/6-31+G opt freq symmetry=(follow,pg=Td) pop=full gfinput
 ---------------------------------------------------------------

 ----------------------------------------------------------
 methane with imposed symmetry and hf/6-31+G basis function
 ----------------------------------------------------------
 Symbolic Z-matrix:
 Charge =  0 Multiplicity = 1

 SCF Done:  E(RHF) =  -40.1810326420     A.U. after    8 cycles
 E2 =    -0.9967063294D-01 EUMP2 =    -0.40280703274931D+02
 SCF Done:  E(RHF) =  -40.1806645778     A.U. after    7 cycles
 E2 =    -0.1001348287D+00 EUMP2 =    -0.40280799406478D+02
 Optimization completed.
    -- Stationary point found.
 Normal termination of Gaussian 09 at Sat Aug 17 14:53:48 2024.

 --------------------------------------------------------------------
 #P Geom=AllCheck Guess=TCheck SCRF=Check GenChk RMP2(FC)/6-31+G Freq
 --------------------------------------------------------------------

 methane with imposed symmetry and hf/6-31+G basis function
 ----------------------------------------------------------
 Redundant internal coordinates taken from checkpoint file:
 /home/ospite/Desktop/MMfP/Project6/CH4/g09/MP2/Gau-4365.chk
 Charge =  0 Multiplicity = 1

                         Standard orientation:
 ---------------------------------------------------------------------
 Center     Atomic      Atomic             Coordinates (Angstroms)
 Number     Number       Type             X           Y           Z
 ---------------------------------------------------------------------
      1          6           0        0.000000    0.000000    0.000000
      2          1           0        0.632980    0.632980    0.632980
      3          1           0       -0.632980   -0.632980    0.632980
      4          1           0       -0.632980    0.632980   -0.632980
      5          1           0        0.632980   -0.632980   -0.632980
 ---------------------------------------------------------------------

 SCF Done:  E(RHF) =  -40.1806645778     A.U. after    1 cycles
 E2 =    -0.1001348287D+00 EUMP2 =    -0.40280799406443D+02
 E2 =    -0.1001348287D+00 EUMP2 =    -0.40280799406443D+02

 The electronic state is 1-A1.
 Alpha  occ. eigenvalues --  -11.21285  -0.94568  -0.54342  -0.54342  -0.54342
 Alpha virt. eigenvalues --    0.09309   0.12293   0.12293   0.12293   0.32808
 Alpha virt. eigenvalues --    0.32808   0.32808   0.41106   0.86823   0.86823
 Alpha virt. eigenvalues --    0.86823   1.26608   1.26608   1.26608   1.31927

 Mulliken atomic charges:
              1
     1  C   -0.715219
     2  H    0.178805
     3  H    0.178805
     4  H    0.178805
     5  H    0.178805
 Sum of Mulliken atomic charges =  -0.00000

 Dipole moment (field-independent basis, Debye):
    X=              0.0000    Y=              0.0000    Z=              0.0000  Tot=              0.0000
 Quadrupole moment (field-independent basis, Debye-Ang):
   XX=             -8.5835   YY=             -8.5835   ZZ=             -8.5835
   XY=              0.0000   XZ=              0.0000   YZ=              0.0000

  Exact polarizability:  12.974   0.000  12.974   0.000   0.000  12.974
 Approx polarizability:   9.789   0.000   9.789   0.000   0.000   9.789

                     1                      2                      3
                    T2                     T2                     T2
 Frequencies --  1432.5172              1432.5172              1432.5172
 Red. masses --     1.1831                 1.1831                 1.1831
 Frc consts  --     1.4304                 1.4304                 1.4304
 IR Inten    --    22.3119                22.3119                22.3119

                     4                      5                      6
                     E                      E                     A1
 Frequencies --  1595.8647              1595.8647              3049.7980
 Red. masses --     1.0078                 1.0078                 1.0078
 Frc consts  --     1.5123                 1.5123                 5.5230
 IR Inten    --     0.0000                 0.0000                 0.0000

                     7                      8                      9
                    T2                     T2                     T2
 Frequencies --  3178.5770              3178.5770              3178.5770
 Red. masses --     1.0981                 1.0981                 1.0981
 Frc consts  --     6.5368                 6.5368                 6.5368
 IR Inten    --    30.5440                30.5440                30.5440

 - Thermochemistry -
 -------------------
 Temperature   298.150 Kelvin.  Pressure   1.00000 Atm.
 Atom     1 has atomic number  6 and mass  12.00000

 Molecular mass:    16.03130 amu.
 Principal axes and moments of inertia in atomic units:
                           1         2         3
     Eigenvalues --    11.53594  11.53594  11.53594
           X            0.67491   0.61654   0.40543
           Y            0.01592  -0.56148   0.82734
           Z            0.73773  -0.55193  -0.38876
 This molecule is a spherical top.
 Rotational symmetry number 12.
 Rotational temperatures (Kelvin)      7.50817     7.50817     7.50817
 Rotational constants (GHZ):         156.44515   156.44515   156.44515
 Zero-point vibrational energy     120074.0 (Joules/Mol)
                                   28.69838 (Kcal/Mol)
 Vibrational temperatures:   2061.07  2061.07  2061.07  2296.09  2296.09
          (Kelvin)           4387.97  4573.26  4573.26  4573.26

 Zero-point correction=                           0.045734 (Hartree/Particle)
 Thermal correction to Energy=                    0.048592
 Thermal correction to Enthalpy=                  0.049537
 Thermal correction to Gibbs Free Energy=         0.028404
 Sum of electronic and zero-point Energies=            -40.235066
 Sum of electronic and thermal Energies=               -40.232207
 Sum of electronic and thermal Enthalpies=             -40.231263
 Sum of electronic and thermal Free Energies=          -40.252396

                     E (Thermal)             CV                S
                      KCal/Mol        Cal/Mol-Kelvin    Cal/Mol-Kelvin
 Total                   30.492              6.353             44.478
 Electronic               0.000              0.000              0.000
 Translational            0.889              2.981             34.261
 Rotational               0.889              2.981             10.154
 Vibrational             28.715              0.391              0.063

 Optimization completed.
    -- Stationary point found.
 Normal termination of Gaussian 09 at Sat Aug 17 14:53:53 2024.
