 Gaussian 09, Revision A.02,
 Gaussian 09:  EM64L-G09RevA.02 11-Jun-2009

 ----------------------------------------------------------------
 #p mp2/cc-pVTZ opt freq symmetry=(follow,pg=Td) pop=full gfinput
 ----------------------------------------------------------------

 ------------------------------------------------------
 methane with imposed symmetry Td and cc-pVTZ basis set
 ------------------------------------------------------
 Symbolic Z-matrix:
 Charge =  0 Multiplicity = 1

 SCF Done:  E(RHF) =  -40.2133009501     A.U. after    8 cycles
 E2 =    -0.1983108613D+00 EUMP2 =    -0.40411611811373D+02
 SCF Done:  E(RHF) =  -40.2134394646     A.U. after    7 cycles
 E2 =    -0.1982270151D+00 EUMP2 =    -0.40411666479770D+02
 Optimization completed.
    -- Stationary point found.
 Normal termination of Gaussian 09 at Sun Aug 18 00:48:41 2024.

 ---------------------------------------------------------------------
 #P Geom=AllCheck Guess=TCheck SCRF=Check GenChk RMP2(FC)/CC-pVTZ Freq
 ---------------------------------------------------------------------

 methane with imposed symmetry Td and cc-pVTZ basis set
 ------------------------------------------------------
 Redundant internal coordinates taken from checkpoint file:
 /home/ospite/Desktop/MMfP/Project6/CH4/g09/MP2/Gau-19906.chk
 Charge =  0 Multiplicity = 1

                         Standard orientation:
 ---------------------------------------------------------------------
 Center     Atomic      Atomic             Coordinates (Angstroms)
 Number     Number       Type             X           Y           Z
 ---------------------------------------------------------------------
      1          6           0        0.000000    0.000000    0.000000
      2          1           0        0.626579    0.626579    0.626579
      3          1           0       -0.626579   -0.626579    0.626579
      4          1           0       -0.626579    0.626579   -0.626579
      5          1           0        0.626579   -0.626579   -0.626579
 ---------------------------------------------------------------------

 SCF Done:  E(RHF) =  -40.2134394646     A.U. after    1 cycles
 E2 =    -0.1982270151D+00 EUMP2 =    -0.40411666479769D+02
 E2 =    -0.1982270151D+00 EUMP2 =    -0.40411666479769D+02

 The electronic state is 1-A1.
 Alpha  occ. eigenvalues --  -11.20488  -0.94438  -0.54575  -0.54575  -0.54575
 Alpha virt. eigenvalues --    0.14371   0.22977   0.22977   0.22977   0.36413
 Alpha virt. eigenvalues --    0.36413   0.36413   0.64314   0.64917   0.64917
 Alpha virt. eigenvalues --    0.64917   0.68521   0.68521   0.75871   1.07770

 Mulliken atomic charges:
              1
     1  C   -0.368491
     2  H    0.092123
     3  H    0.092123
     4  H    0.092123
     5  H    0.092123
 Sum of Mulliken atomic charges =   0.00000

 Dipole moment (field-independent basis, Debye):
    X=             -0.0000    Y=              0.0000    Z=             -0.0000  Tot=              0.0000
 Quadrupole moment (field-independent basis, Debye-Ang):
   XX=             -8.4133   YY=             -8.4133   ZZ=             -8.4133
   XY=              0.0000   XZ=              0.0000   YZ=             -0.0000

  Exact polarizability:  14.821  -0.000  14.821   0.000   0.000  14.821
 Approx polarizability:  12.231   0.000  12.231   0.000  -0.000  12.231

                     1                      2                      3
                    T2                     T2                     T2
 Frequencies --  1349.5928              1349.5928              1349.5928
 Red. masses --     1.1792                 1.1792                 1.1792
 Frc consts  --     1.2655                 1.2655                 1.2655
 IR Inten    --    11.9562                11.9562                11.9562

                     4                      5                      6
                     E                      E                     A1
 Frequencies --  1586.1803              1586.1803              3076.9082
 Red. masses --     1.0078                 1.0078                 1.0078
 Frc consts  --     1.4940                 1.4940                 5.6217
 IR Inten    --     0.0000                 0.0000                 0.0000

                     7                      8                      9
                    T2                     T2                     T2
 Frequencies --  3212.8338              3212.8338              3212.8338
 Red. masses --     1.1014                 1.1014                 1.1014
 Frc consts  --     6.6986                 6.6986                 6.6986
 IR Inten    --    16.5951                16.5951                16.5951

 - Thermochemistry -
 -------------------
 Temperature   298.150 Kelvin.  Pressure   1.00000 Atm.
 Atom     1 has atomic number  6 and mass  12.00000

 Molecular mass:    16.03130 amu.
 Principal axes and moments of inertia in atomic units:
                           1         2         3
     Eigenvalues --    11.30379  11.30379  11.30379
           X            0.43319   0.90130   0.00000
           Y            0.00000  -0.00000   1.00000
           Z            0.90130  -0.43319   0.00000
 This molecule is a spherical top.
 Rotational symmetry number 12.
 Rotational temperatures (Kelvin)      7.66237     7.66237     7.66237
 Rotational constants (GHZ):         159.65800   159.65800   159.65800
 Zero-point vibrational energy     119247.0 (Joules/Mol)
                                   28.50073 (Kcal/Mol)
 Vibrational temperatures:   1941.76  1941.76  1941.76  2282.16  2282.16
          (Kelvin)           4426.98  4622.55  4622.55  4622.55

 Zero-point correction=                           0.045419 (Hartree/Particle)
 Thermal correction to Energy=                    0.048286
 Thermal correction to Enthalpy=                  0.049230
 Thermal correction to Gibbs Free Energy=         0.028116
 Sum of electronic and zero-point Energies=            -40.366248
 Sum of electronic and thermal Energies=               -40.363381
 Sum of electronic and thermal Enthalpies=             -40.362437
 Sum of electronic and thermal Free Energies=          -40.383551

                     E (Thermal)             CV                S
                      KCal/Mol        Cal/Mol-Kelvin    Cal/Mol-Kelvin
 Total                   30.300              6.449             44.438
 Electronic               0.000              0.000              0.000
 Translational            0.889              2.981             34.261
 Rotational               0.889              2.981             10.094
 Vibrational             28.522              0.487              0.083

 Optimization completed.
    -- Stationary point found.
 Normal termination of Gaussian 09 at Sun Aug 18 00:50:57 2024.
