 Gaussian 09, Revision A.02,
 Gaussian 09:  EM64L-G09RevA.02 11-Jun-2009

 --------------------------------------------------------------------
 #p mp2/aug-cc-pVDZ opt freq symmetry=(follow,pg=Td) pop=full gfinput
 --------------------------------------------------------------------

 -------------------------------------------------------
 methane with imposed symmetry and aug-cc-pVDZ basis set
 -------------------------------------------------------
 Symbolic Z-matrix:
 Charge =  0 Multiplicity = 1

 SCF Done:  E(RHF) =  -40.1996321677     A.U. after    8 cycles
 E2 =    -0.1679212526D+00 EUMP2 =    -0.40367553420260D+02
 SCF Done:  E(RHF) =  -40.1994082813     A.U. after    7 cycles
 E2 =    -0.1683177860D+00 EUMP2 =    -0.40367726067347D+02
 Optimization completed.
    -- Stationary point found.
 Normal termination of Gaussian 09 at Sun Aug 18 00:52:07 2024.

 ----------------------------------------------------------------------
 #P Geom=AllCheck Guess=TCheck SCRF=Check GenChk RMP2(FC)/Aug-CC-pVDZ F
 req
 ----------------------------------------------------------------------

 methane with imposed symmetry and aug-cc-pVDZ basis set
 -------------------------------------------------------
 Redundant internal coordinates taken from checkpoint file:
 /home/ospite/Desktop/MMfP/Project6/CH4/g09/MP2/Gau-19992.chk
 Charge =  0 Multiplicity = 1

                         Standard orientation:
 ---------------------------------------------------------------------
 Center     Atomic      Atomic             Coordinates (Angstroms)
 Number     Number       Type             X           Y           Z
 ---------------------------------------------------------------------
      1          6           0        0.000000    0.000000    0.000000
      2          1           0        0.634266    0.634266    0.634266
      3          1           0       -0.634266   -0.634266    0.634266
      4          1           0       -0.634266    0.634266   -0.634266
      5          1           0        0.634266   -0.634266   -0.634266
 ---------------------------------------------------------------------

 SCF Done:  E(RHF) =  -40.1994082813     A.U. after    1 cycles
 E2 =    -0.1683177860D+00 EUMP2 =    -0.40367726067309D+02
 E2 =    -0.1683177860D+00 EUMP2 =    -0.40367726067309D+02

 The electronic state is 1-A1.
 Alpha  occ. eigenvalues --  -11.21987  -0.93976  -0.54152  -0.54152  -0.54152
 Alpha virt. eigenvalues --    0.03692   0.06378   0.06378   0.06378   0.14601
 Alpha virt. eigenvalues --    0.14601   0.14601   0.17412   0.29876   0.29876
 Alpha virt. eigenvalues --    0.29876   0.30588   0.30588   0.41538   0.44025

 Mulliken atomic charges:
              1
     1  C    0.498889
     2  H   -0.124722
     3  H   -0.124722
     4  H   -0.124722
     5  H   -0.124722
 Sum of Mulliken atomic charges =   0.00000

 Dipole moment (field-independent basis, Debye):
    X=              0.0000    Y=              0.0000    Z=              0.0000  Tot=              0.0000
 Quadrupole moment (field-independent basis, Debye-Ang):
   XX=             -8.4640   YY=             -8.4640   ZZ=             -8.4640
   XY=             -0.0000   XZ=              0.0000   YZ=              0.0000

  Exact polarizability:  16.797   0.000  16.797   0.000  -0.000  16.797
 Approx polarizability:  13.547   0.000  13.547   0.000   0.000  13.547

                     1                      2                      3
                    T2                     T2                     T2
 Frequencies --  1324.7003              1324.7003              1324.7003
 Red. masses --     1.1795                 1.1795                 1.1795
 Frc consts  --     1.2195                 1.2195                 1.2195
 IR Inten    --     9.2121                 9.2121                 9.2121

                     4                      5                      6
                     E                      E                     A1
 Frequencies --  1551.0442              1551.0442              3059.5896
 Red. masses --     1.0078                 1.0078                 1.0078
 Frc consts  --     1.4285                 1.4285                 5.5586
 IR Inten    --     0.0000                 0.0000                 0.0000

                     7                      8                      9
                    T2                     T2                     T2
 Frequencies --  3202.9789              3202.9789              3202.9789
 Red. masses --     1.1012                 1.1012                 1.1012
 Frc consts  --     6.6564                 6.6564                 6.6564
 IR Inten    --    19.5998                19.5998                19.5998

 - Thermochemistry -
 -------------------
 Temperature   298.150 Kelvin.  Pressure   1.00000 Atm.
 Atom     1 has atomic number  6 and mass  12.00000

 Molecular mass:    16.03130 amu.
 Principal axes and moments of inertia in atomic units:
                           1         2         3
     Eigenvalues --    11.58286  11.58286  11.58286
           X            0.76241   0.62999  -0.14781
           Y            0.04371   0.17777   0.98310
           Z           -0.64562   0.75599  -0.10799
 This molecule is a spherical top.
 Rotational symmetry number 12.
 Rotational temperatures (Kelvin)      7.47776     7.47776     7.47776
 Rotational constants (GHZ):         155.81141   155.81141   155.81141
 Zero-point vibrational energy     118099.6 (Joules/Mol)
                                   28.22649 (Kcal/Mol)
 Vibrational temperatures:   1905.95  1905.95  1905.95  2231.60  2231.60
          (Kelvin)           4402.06  4608.37  4608.37  4608.37

 Zero-point correction=                           0.044982 (Hartree/Particle)
 Thermal correction to Energy=                    0.047853
 Thermal correction to Enthalpy=                  0.048797
 Thermal correction to Gibbs Free Energy=         0.027644
 Sum of electronic and zero-point Energies=            -40.322744
 Sum of electronic and thermal Energies=               -40.319873
 Sum of electronic and thermal Enthalpies=             -40.318929
 Sum of electronic and thermal Free Energies=          -40.340082

                     E (Thermal)             CV                S
                      KCal/Mol        Cal/Mol-Kelvin    Cal/Mol-Kelvin
 Total                   30.028              6.496             44.521
 Electronic               0.000              0.000              0.000
 Translational            0.889              2.981             34.261
 Rotational               0.889              2.981             10.166
 Vibrational             28.251              0.535              0.093

 Optimization completed.
    -- Stationary point found.
 Normal termination of Gaussian 09 at Sun Aug 18 00:52:35 2024.
