 Gaussian 09, Revision A.02,
 Gaussian 09:  EM64L-G09RevA.02 11-Jun-2009

 ------------------------------------------
 #p b3pw91/6-31+G opt freq pop=full gfinput
 ------------------------------------------

 ------------------------------------------------
 hydrogen(molecule) with hf/6-31+G basis function
 ------------------------------------------------
 Symbolic Z-matrix:
 Charge =  0 Multiplicity = 1

 SCF Done:  E(RB3PW91) =  -1.17455589544     A.U. after    6 cycles
 SCF Done:  E(RB3PW91) =  -1.17456186388     A.U. after    3 cycles
 Optimization completed.
    -- Stationary point found.
 Normal termination of Gaussian 09 at Sat Aug 17 22:32:58 2024.

 -------------------------------------------------------------------
 #P Geom=AllCheck Guess=TCheck SCRF=Check GenChk RB3PW91/6-31+G Freq
 -------------------------------------------------------------------

 hydrogen(molecule) with hf/6-31+G basis function
 ------------------------------------------------
 Redundant internal coordinates taken from checkpoint file:
 /home/ospite/Desktop/MMfP/Project6/H2/g09/DFT/B3PW91/Gau-14963.chk
 Charge =  0 Multiplicity = 1

                         Standard orientation:
 ---------------------------------------------------------------------
 Center     Atomic      Atomic             Coordinates (Angstroms)
 Number     Number       Type             X           Y           Z
 ---------------------------------------------------------------------
      1          1           0        0.000000    0.000000    0.371444
      2          1           0        0.000000    0.000000   -0.371444
 ---------------------------------------------------------------------

 SCF Done:  E(RB3PW91) =  -1.17456186388     A.U. after    1 cycles

 The electronic state is 1-SGG.
 Alpha  occ. eigenvalues --   -0.43336
 Alpha virt. eigenvalues --    0.10702   0.59423   1.11897

 Mulliken atomic charges:
              1
     1  H   -0.000000
     2  H   -0.000000
 Sum of Mulliken atomic charges =  -0.00000

 Dipole moment (field-independent basis, Debye):
    X=             -0.0000    Y=              0.0000    Z=             -0.0000  Tot=              0.0000
 Quadrupole moment (field-independent basis, Debye-Ang):
   XX=             -2.0083   YY=             -2.0083   ZZ=             -1.5839
   XY=              0.0000   XZ=             -0.0000   YZ=              0.0000

  Exact polarizability:   0.000   0.000   0.000  -0.000   0.000   6.456
 Approx polarizability:   0.000  -0.000  -0.000  -0.000  -0.000   7.809

                     1
                    SGG
 Frequencies --  4447.7799
 Red. masses --     1.0078
 Frc consts  --    11.7469
 IR Inten    --     0.0000

 - Thermochemistry -
 -------------------
 Temperature   298.150 Kelvin.  Pressure   1.00000 Atm.
 Atom     1 has atomic number  1 and mass   1.00783

 Molecular mass:     2.01565 amu.
 Principal axes and moments of inertia in atomic units:
                           1         2         3
     Eigenvalues --     0.00000   0.99311   0.99311
           X           -0.00000   1.00000  -0.00000
           Y            0.00000   0.00000   1.00000
           Z            1.00000   0.00000  -0.00000
 This molecule is a prolate symmetric top.
 Rotational symmetry number  2.
 Rotational temperature (Kelvin)     87.21431
 Rotational constant (GHZ):        1817.253442
 Zero-point vibrational energy      26603.6 (Joules/Mol)
                                    6.35842 (Kcal/Mol)
 Vibrational temperatures:   6399.36
          (Kelvin)

 Zero-point correction=                           0.010133 (Hartree/Particle)
 Thermal correction to Energy=                    0.012493
 Thermal correction to Enthalpy=                  0.013437
 Thermal correction to Gibbs Free Energy=        -0.001355
 Sum of electronic and zero-point Energies=             -1.164429
 Sum of electronic and thermal Energies=                -1.162069
 Sum of electronic and thermal Enthalpies=              -1.161124
 Sum of electronic and thermal Free Energies=           -1.175917

                     E (Thermal)             CV                S
                      KCal/Mol        Cal/Mol-Kelvin    Cal/Mol-Kelvin
 Total                    7.840              4.968             31.133
 Electronic               0.000              0.000              0.000
 Translational            0.889              2.981             28.080
 Rotational               0.592              1.987              3.053
 Vibrational              6.358              0.000              0.000

 Optimization completed.
    -- Stationary point found.
 Normal termination of Gaussian 09 at Sat Aug 17 22:33:00 2024.
