 Gaussian 09, Revision A.02,
 Gaussian 09:  EM64L-G09RevA.02 11-Jun-2009

 -----------------------------------------------
 #p b3pw91/aug-cc-pVDZ opt freq pop=full gfinput
 -----------------------------------------------

 --------------------------------------------------------
 hydrogen (moldecule) with and aug-cc-pVDZ basis function
 --------------------------------------------------------
 Symbolic Z-matrix:
 Charge =  0 Multiplicity = 1

 SCF Done:  E(RB3PW91) =  -1.17392418755     A.U. after    6 cycles
 SCF Done:  E(RB3PW91) =  -1.17419647245     A.U. after    5 cycles
 Optimization completed.
    -- Stationary point found.
 Normal termination of Gaussian 09 at Sat Aug 17 22:35:21 2024.

 ----------------------------------------------------------------------
 #P Geom=AllCheck Guess=TCheck SCRF=Check GenChk RB3PW91/Aug-CC-pVDZ Fr
 eq
 ----------------------------------------------------------------------

 hydrogen (moldecule) with and aug-cc-pVDZ basis function
 --------------------------------------------------------
 Redundant internal coordinates taken from checkpoint file:
 /home/ospite/Desktop/MMfP/Project6/H2/g09/DFT/B3PW91/Gau-15069.chk
 Charge =  0 Multiplicity = 1

                         Standard orientation:
 ---------------------------------------------------------------------
 Center     Atomic      Atomic             Coordinates (Angstroms)
 Number     Number       Type             X           Y           Z
 ---------------------------------------------------------------------
      1          1           0        0.000000    0.000000    0.379915
      2          1           0        0.000000    0.000000   -0.379915
 ---------------------------------------------------------------------

 SCF Done:  E(RB3PW91) =  -1.17419647245     A.U. after    1 cycles

 The electronic state is 1-SGG.
 Alpha  occ. eigenvalues --   -0.42639
 Alpha virt. eigenvalues --    0.02235   0.03343   0.13547   0.18061   0.18061
 Alpha virt. eigenvalues --    0.32709   0.37112   0.37112   0.45948   0.57083
 Alpha virt. eigenvalues --    1.00090   1.35719   1.35719   1.79246   1.96374

 Mulliken atomic charges:
              1
     1  H    0.000000
     2  H    0.000000
 Sum of Mulliken atomic charges =   0.00000

 Dipole moment (field-independent basis, Debye):
    X=              0.0000    Y=             -0.0000    Z=             -0.0000  Tot=              0.0000
 Quadrupole moment (field-independent basis, Debye-Ang):
   XX=             -2.0627   YY=             -2.0627   ZZ=             -1.5133
   XY=             -0.0000   XZ=             -0.0000   YZ=              0.0000

  Exact polarizability:   4.630  -0.000   4.630   0.000  -0.000   7.073
 Approx polarizability:   4.620  -0.000   4.620  -0.000  -0.000   8.318

                     1
                    SGG
 Frequencies --  4372.8021
 Red. masses --     1.0078
 Frc consts  --    11.3542
 IR Inten    --     0.0000

 - Thermochemistry -
 -------------------
 Temperature   298.150 Kelvin.  Pressure   1.00000 Atm.
 Atom     1 has atomic number  1 and mass   1.00783

 Molecular mass:     2.01565 amu.
 Principal axes and moments of inertia in atomic units:
                           1         2         3
     Eigenvalues --    -0.00000   1.03893   1.03893
           X           -0.00000   1.00000  -0.00000
           Y            0.00000   0.00000   1.00000
           Z            1.00000   0.00000  -0.00000
 This molecule is a prolate symmetric top.
 Rotational symmetry number  2.
 Rotational temperature (Kelvin)     83.36822
 Rotational constant (GHZ):        1737.113965
 Zero-point vibrational energy      26155.2 (Joules/Mol)
                                    6.25123 (Kcal/Mol)
 Vibrational temperatures:   6291.48
          (Kelvin)

 Zero-point correction=                           0.009962 (Hartree/Particle)
 Thermal correction to Energy=                    0.012322
 Thermal correction to Enthalpy=                  0.013267
 Thermal correction to Gibbs Free Energy=        -0.001568
 Sum of electronic and zero-point Energies=             -1.164234
 Sum of electronic and thermal Energies=                -1.161874
 Sum of electronic and thermal Enthalpies=              -1.160930
 Sum of electronic and thermal Free Energies=           -1.175765

                     E (Thermal)             CV                S
                      KCal/Mol        Cal/Mol-Kelvin    Cal/Mol-Kelvin
 Total                    7.732              4.968             31.222
 Electronic               0.000              0.000              0.000
 Translational            0.889              2.981             28.080
 Rotational               0.592              1.987              3.142
 Vibrational              6.251              0.000              0.000

 Optimization completed.
    -- Stationary point found.
 Normal termination of Gaussian 09 at Sat Aug 17 22:35:24 2024.
