 Gaussian 09, Revision A.02,
 Gaussian 09:  EM64L-G09RevA.02 11-Jun-2009

 -------------------------------------------
 #p b3pw91/cc-pVQZ opt freq pop=full gfinput
 -------------------------------------------

 -----------------------------------------
 hydogen (molecule) with cc-pVQZ basis set
 -----------------------------------------
 Symbolic Z-matrix:
 Charge =  0 Multiplicity = 1

 SCF Done:  E(RB3PW91) =  -1.17941388731     A.U. after    6 cycles
 SCF Done:  E(RB3PW91) =  -1.17942247523     A.U. after    4 cycles
 Optimization completed.
    -- Stationary point found.
 Normal termination of Gaussian 09 at Sun Aug 18 15:13:12 2024.

 --------------------------------------------------------------------
 #P Geom=AllCheck Guess=TCheck SCRF=Check GenChk RB3PW91/CC-pVQZ Freq
 --------------------------------------------------------------------

 hydogen (molecule) with cc-pVQZ basis set
 -----------------------------------------
 Redundant internal coordinates taken from checkpoint file:
 /home/ospite/Desktop/MMfP/Project6/H2/g09/DFT/B3PW91/Gau-8152.chk
 Charge =  0 Multiplicity = 1

                         Standard orientation:
 ---------------------------------------------------------------------
 Center     Atomic      Atomic             Coordinates (Angstroms)
 Number     Number       Type             X           Y           Z
 ---------------------------------------------------------------------
      1          1           0        0.000000    0.000000    0.371720
      2          1           0        0.000000    0.000000   -0.371720
 ---------------------------------------------------------------------

 SCF Done:  E(RB3PW91) =  -1.17942247523     A.U. after    1 cycles

 The electronic state is 1-SGG.
 Alpha  occ. eigenvalues --   -0.43201
 Alpha virt. eigenvalues --    0.06021   0.15617   0.36002   0.36002   0.37976
 Alpha virt. eigenvalues --    0.66478   0.68009   0.68009   0.99623   1.11965
 Alpha virt. eigenvalues --    1.36229   1.71052   1.71052   1.89576   1.89576

 Mulliken atomic charges:
              1
     1  H    0.000000
     2  H    0.000000
 Sum of Mulliken atomic charges =   0.00000

 Dipole moment (field-independent basis, Debye):
    X=              0.0000    Y=             -0.0000    Z=              0.0000  Tot=              0.0000
 Quadrupole moment (field-independent basis, Debye-Ang):
   XX=             -2.0775   YY=             -2.0775   ZZ=             -1.4799
   XY=             -0.0000   XZ=             -0.0000   YZ=              0.0000

  Exact polarizability:   3.531  -0.000   3.531  -0.000  -0.000   6.741
 Approx polarizability:   3.605  -0.000   3.605  -0.000  -0.000   7.866

                     1
                    SGG
 Frequencies --  4409.8645
 Red. masses --     1.0078
 Frc consts  --    11.5474
 IR Inten    --     0.0000

 - Thermochemistry -
 -------------------
 Temperature   298.150 Kelvin.  Pressure   1.00000 Atm.
 Atom     1 has atomic number  1 and mass   1.00783

 Molecular mass:     2.01565 amu.
 Principal axes and moments of inertia in atomic units:
                           1         2         3
     Eigenvalues --     0.00000   0.99459   0.99459
           X           -0.00000   1.00000  -0.00000
           Y            0.00000   0.00000   1.00000
           Z            1.00000   0.00000  -0.00000
 This molecule is a prolate symmetric top.
 Rotational symmetry number  2.
 Rotational temperature (Kelvin)     87.08491
 Rotational constant (GHZ):        1814.557252
 Zero-point vibrational energy      26376.8 (Joules/Mol)
                                    6.30422 (Kcal/Mol)
 Vibrational temperatures:   6344.80
          (Kelvin)

 Zero-point correction=                           0.010046 (Hartree/Particle)
 Thermal correction to Energy=                    0.012407
 Thermal correction to Enthalpy=                  0.013351
 Thermal correction to Gibbs Free Energy=        -0.001443
 Sum of electronic and zero-point Energies=             -1.169376
 Sum of electronic and thermal Energies=                -1.167016
 Sum of electronic and thermal Enthalpies=              -1.166071
 Sum of electronic and thermal Free Energies=           -1.180865

                     E (Thermal)             CV                S
                      KCal/Mol        Cal/Mol-Kelvin    Cal/Mol-Kelvin
 Total                    7.785              4.968             31.136
 Electronic               0.000              0.000              0.000
 Translational            0.889              2.981             28.080
 Rotational               0.592              1.987              3.055
 Vibrational              6.304              0.000              0.000

 Optimization completed.
    -- Stationary point found.
 Normal termination of Gaussian 09 at Sun Aug 18 15:13:27 2024.
