 Gaussian 09, Revision A.02,
 Gaussian 09:  EM64L-G09RevA.02 11-Jun-2009

 -------------------------------------------
 #p b3pw91/cc-pVTZ opt freq pop=full gfinput
 -------------------------------------------

 -----------------------------------------
 hydogen (molecule) with cc-pVTZ basis set
 -----------------------------------------
 Symbolic Z-matrix:
 Charge =  0 Multiplicity = 1

 SCF Done:  E(RB3PW91) =  -1.17892618836     A.U. after    6 cycles
 SCF Done:  E(RB3PW91) =  -1.17893888746     A.U. after    4 cycles
 Optimization completed.
    -- Stationary point found.
 Normal termination of Gaussian 09 at Sat Aug 17 22:41:01 2024.

 --------------------------------------------------------------------
 #P Geom=AllCheck Guess=TCheck SCRF=Check GenChk RB3PW91/CC-pVTZ Freq
 --------------------------------------------------------------------

 hydogen (molecule) with cc-pVTZ basis set
 -----------------------------------------
 Redundant internal coordinates taken from checkpoint file:
 /home/ospite/Desktop/MMfP/Project6/H2/g09/DFT/B3PW91/Gau-15271.chk
 Charge =  0 Multiplicity = 1

                         Standard orientation:
 ---------------------------------------------------------------------
 Center     Atomic      Atomic             Coordinates (Angstroms)
 Number     Number       Type             X           Y           Z
 ---------------------------------------------------------------------
      1          1           0        0.000000    0.000000    0.372097
      2          1           0        0.000000    0.000000   -0.372097
 ---------------------------------------------------------------------

 SCF Done:  E(RB3PW91) =  -1.17893888746     A.U. after    1 cycles

 The electronic state is 1-SGG.
 Alpha  occ. eigenvalues --   -0.43160
 Alpha virt. eigenvalues --    0.06878   0.21051   0.47557   0.51093   0.51093
 Alpha virt. eigenvalues --    0.91492   0.94135   0.94135   1.37613   2.04559
 Alpha virt. eigenvalues --    2.10480   2.87627   2.87627   3.07812   3.07812

 Mulliken atomic charges:
              1
     1  H    0.000000
     2  H    0.000000
 Sum of Mulliken atomic charges =   0.00000

 Dipole moment (field-independent basis, Debye):
    X=              0.0000    Y=              0.0000    Z=             -0.0000  Tot=              0.0000
 Quadrupole moment (field-independent basis, Debye-Ang):
   XX=             -2.0777   YY=             -2.0777   ZZ=             -1.4994
   XY=             -0.0000   XZ=             -0.0000   YZ=              0.0000

  Exact polarizability:   2.674  -0.000   2.674  -0.000   0.000   6.797
 Approx polarizability:   2.789  -0.000   2.789  -0.000  -0.000   7.937

                     1
                    SGG
 Frequencies --  4414.6030
 Red. masses --     1.0078
 Frc consts  --    11.5723
 IR Inten    --     0.0000

 - Thermochemistry -
 -------------------
 Temperature   298.150 Kelvin.  Pressure   1.00000 Atm.
 Atom     1 has atomic number  1 and mass   1.00783

 Molecular mass:     2.01565 amu.
 Principal axes and moments of inertia in atomic units:
                           1         2         3
     Eigenvalues --    -0.00000   0.99661   0.99661
           X           -0.00000   1.00000  -0.00000
           Y            0.00000   0.00000   1.00000
           Z            1.00000   0.00000  -0.00000
 This molecule is a prolate symmetric top.
 Rotational symmetry number  2.
 Rotational temperature (Kelvin)     86.90863
 Rotational constant (GHZ):        1810.884263
 Zero-point vibrational energy      26405.2 (Joules/Mol)
                                    6.31099 (Kcal/Mol)
 Vibrational temperatures:   6351.62
          (Kelvin)

 Zero-point correction=                           0.010057 (Hartree/Particle)
 Thermal correction to Energy=                    0.012418
 Thermal correction to Enthalpy=                  0.013362
 Thermal correction to Gibbs Free Energy=        -0.001434
 Sum of electronic and zero-point Energies=             -1.168882
 Sum of electronic and thermal Energies=                -1.166521
 Sum of electronic and thermal Enthalpies=              -1.165577
 Sum of electronic and thermal Free Energies=           -1.180373

                     E (Thermal)             CV                S
                      KCal/Mol        Cal/Mol-Kelvin    Cal/Mol-Kelvin
 Total                    7.792              4.968             31.140
 Electronic               0.000              0.000              0.000
 Translational            0.889              2.981             28.080
 Rotational               0.592              1.987              3.059
 Vibrational              6.311              0.000              0.000

 Optimization completed.
    -- Stationary point found.
 Normal termination of Gaussian 09 at Sat Aug 17 22:41:07 2024.
