 Gaussian 09, Revision A.02,
 Gaussian 09:  EM64L-G09RevA.02 11-Jun-2009

 -------------------------------------------
 #p b3pw91/cc-pVDZ opt freq pop=full gfinput
 -------------------------------------------

 -----------------------------------------
 hydogen (molecule) with cc-pVDZ basis set
 -----------------------------------------
 Symbolic Z-matrix:
 Charge =  0 Multiplicity = 1

 SCF Done:  E(RB3PW91) =  -1.17364468544     A.U. after    6 cycles
 SCF Done:  E(RB3PW91) =  -1.17393732796     A.U. after    4 cycles
 Optimization completed.
    -- Stationary point found.
 Normal termination of Gaussian 09 at Sat Aug 17 22:38:13 2024.

 --------------------------------------------------------------------
 #P Geom=AllCheck Guess=TCheck SCRF=Check GenChk RB3PW91/CC-pVDZ Freq
 --------------------------------------------------------------------

 hydogen (molecule) with cc-pVDZ basis set
 -----------------------------------------
 Redundant internal coordinates taken from checkpoint file:
 /home/ospite/Desktop/MMfP/Project6/H2/g09/DFT/B3PW91/Gau-15149.chk
 Charge =  0 Multiplicity = 1

                         Standard orientation:
 ---------------------------------------------------------------------
 Center     Atomic      Atomic             Coordinates (Angstroms)
 Number     Number       Type             X           Y           Z
 ---------------------------------------------------------------------
      1          1           0        0.000000    0.000000    0.380325
      2          1           0        0.000000    0.000000   -0.380325
 ---------------------------------------------------------------------

 SCF Done:  E(RB3PW91) =  -1.17393732796     A.U. after    1 cycles

 The electronic state is 1-SGG.
 Alpha  occ. eigenvalues --   -0.42480
 Alpha virt. eigenvalues --    0.08009   0.34802   0.70342   1.04116   1.04116
 Alpha virt. eigenvalues --    1.66098   1.75968   1.75968   3.15920

 Mulliken atomic charges:
              1
     1  H   -0.000000
     2  H   -0.000000
 Sum of Mulliken atomic charges =  -0.00000

 Dipole moment (field-independent basis, Debye):
    X=             -0.0000    Y=              0.0000    Z=             -0.0000  Tot=              0.0000
 Quadrupole moment (field-independent basis, Debye-Ang):
   XX=             -2.0264   YY=             -2.0264   ZZ=             -1.4409
   XY=             -0.0000   XZ=             -0.0000   YZ=              0.0000

  Exact polarizability:   1.193  -0.000   1.193  -0.000   0.000   6.715
 Approx polarizability:   1.275  -0.000   1.275  -0.000  -0.000   7.977

                     1
                    SGG
 Frequencies --  4384.7464
 Red. masses --     1.0078
 Frc consts  --    11.4163
 IR Inten    --     0.0000

 - Thermochemistry -
 -------------------
 Temperature   298.150 Kelvin.  Pressure   1.00000 Atm.
 Atom     1 has atomic number  1 and mass   1.00783

 Molecular mass:     2.01565 amu.
 Principal axes and moments of inertia in atomic units:
                           1         2         3
     Eigenvalues --     0.00000   1.04117   1.04117
           X           -0.00000   1.00000  -0.00000
           Y            0.00000   0.00000   1.00000
           Z            1.00000   0.00000  -0.00000
 This molecule is a prolate symmetric top.
 Rotational symmetry number  2.
 Rotational temperature (Kelvin)     83.18871
 Rotational constant (GHZ):        1733.373481
 Zero-point vibrational energy      26226.6 (Joules/Mol)
                                    6.26831 (Kcal/Mol)
 Vibrational temperatures:   6308.66
          (Kelvin)

 Zero-point correction=                           0.009989 (Hartree/Particle)
 Thermal correction to Energy=                    0.012350
 Thermal correction to Enthalpy=                  0.013294
 Thermal correction to Gibbs Free Energy=        -0.001543
 Sum of electronic and zero-point Energies=             -1.163948
 Sum of electronic and thermal Energies=                -1.161588
 Sum of electronic and thermal Enthalpies=              -1.160643
 Sum of electronic and thermal Free Energies=           -1.175480

                     E (Thermal)             CV                S
                      KCal/Mol        Cal/Mol-Kelvin    Cal/Mol-Kelvin
 Total                    7.750              4.968             31.227
 Electronic               0.000              0.000              0.000
 Translational            0.889              2.981             28.080
 Rotational               0.592              1.987              3.146
 Vibrational              6.268              0.000              0.000

 Optimization completed.
    -- Stationary point found.
 Normal termination of Gaussian 09 at Sat Aug 17 22:38:16 2024.
