 Gaussian 09, Revision D.01,
 Gaussian 09:  EM64L-G09RevD.01 24-Apr-2013

 ------------------------------------------------
 #p B3PW91/cc-pVTZ opt(internal) pop=full gfinput
 ------------------------------------------------

 ---------------
 acetic acid opt
 ---------------
 Symbolic Z-matrix:
 Charge =  0 Multiplicity = 1

 SCF Done:  E(RB3PW91) =  -229.076239416     A.U. after   12 cycles
 SCF Done:  E(RB3PW91) =  -229.080222786     A.U. after   11 cycles
 SCF Done:  E(RB3PW91) =  -229.080322687     A.U. after    8 cycles
 SCF Done:  E(RB3PW91) =  -229.080326630     A.U. after    8 cycles
 Optimization completed.
    -- Stationary point found.

                         Standard orientation:
 ---------------------------------------------------------------------
 Center     Atomic      Atomic             Coordinates (Angstroms)
 Number     Number       Type             X           Y           Z
 ---------------------------------------------------------------------
      1          6           0        0.000000    0.183075    0.000000
      2          6           0       -0.906803   -1.025896   -0.000000
      3          1           0       -0.383763   -1.982662   -0.000000
      4          1           0       -1.550322   -0.973917    0.878155
      5          1           0       -1.550322   -0.973917   -0.878155
      6          8           0       -0.404243    1.308300    0.000000
      7          8           0        1.332874   -0.059040    0.000000
      8          1           0        1.496176   -1.006658   -0.000000
 ---------------------------------------------------------------------

 The electronic state is 1-A'.
 Alpha  occ. eigenvalues --  -19.17253 -19.10434 -10.29923 -10.18884  -1.11471
 Alpha  occ. eigenvalues --   -1.03176  -0.76648  -0.62848  -0.52758  -0.48045
 Alpha  occ. eigenvalues --   -0.47644  -0.42999  -0.40649  -0.38617  -0.32861
 Alpha  occ. eigenvalues --   -0.28353
 Alpha virt. eigenvalues --    0.00035   0.01781   0.07162   0.10476   0.11992
 Alpha virt. eigenvalues --    0.15905   0.21237   0.24269   0.25501   0.31125
 Alpha virt. eigenvalues --    0.32812   0.33079   0.36099   0.39513   0.42909

 Mulliken charges:
               1
     1  C    0.263959
     2  C   -0.278760
     3  H    0.072264
     4  H    0.120642
     5  H    0.120642
     6  O   -0.287141
     7  O   -0.208193
     8  H    0.196587
 Sum of Mulliken charges =  -0.00000

 Dipole moment (field-independent basis, Debye):
    X=             -0.0532    Y=             -4.2630    Z=              0.0000  Tot=              4.2634
 Quadrupole moment (field-independent basis, Debye-Ang):
   XX=            -23.0223   YY=            -24.7075   ZZ=            -22.8405
   XY=             -0.8939   XZ=             -0.0000   YZ=             -0.0000

 1\1\GINC-R500N004\POpt\RB3PW91\CC-pVTZ\C2H4O2\ECABIATI\12-Sep-2024\1\\
 #p B3PW91/cc-pVTZ opt(internal) pop=full gfinput\\acetic acid opt\\0,1
 \C\C,1,cc2\H,2,hc3,1,hcc3\H,2,hc4,1,hcc4,3,dih4,0\H,2,hc5,1,hcc5,3,dih
 5,0\O,1,oc6,2,occ6,3,dih6,0\O,1,oc7,6,oco7,2,dih7,0\H,7,ho8,1,hoc8,6,d
 ih8,0\\cc2=1.51125774\hc3=1.09039991\hcc3=114.46353498\hc4=1.08994271\
 hcc4=108.42831401\dih4=121.87108565\hc5=1.08994271\hcc5=108.42831401\d
 ih5=-121.87108565\oc6=1.19563589\occ6=123.36672595\dih6=180.\oc7=1.354
 68561\oco7=120.05654519\dih7=180.\ho8=0.96158555\hoc8=110.07311897\dih

 Normal termination of Gaussian 09 at Thu Sep 12 13:12:52 2024.
