 Gaussian 09, Revision D.01,
 Gaussian 09:  EM64L-G09RevD.01 24-Apr-2013

 --------------------------
 #p B3PW91/cc-pVTZ nmr=giao
 --------------------------

 ---------------
 acetic acid opt
 ---------------
 Symbolic Z-matrix:
 Charge =  0 Multiplicity = 1

                         Standard orientation:
 ---------------------------------------------------------------------
 Center     Atomic      Atomic             Coordinates (Angstroms)
 Number     Number       Type             X           Y           Z
 ---------------------------------------------------------------------
      1          6           0        0.000000    0.183093    0.000000
      2          6           0       -0.906838   -1.025903    0.000000
      3          1           0       -0.383806   -1.982673    0.000000
      4          1           0       -1.550332   -0.973921    0.878121
      5          1           0       -1.550332   -0.973921   -0.878121
      6          8           0       -0.404222    1.308288    0.000000
      7          8           0        1.332887   -0.059033    0.000000
      8          1           0        1.496184   -1.006667    0.000000
 ---------------------------------------------------------------------

 SCF Done:  E(RB3PW91) =  -229.080326623     A.U. after   12 cycles

      1  C    Isotropic =    17.9831   Anisotropy =    87.6935

      2  C    Isotropic =   164.3623   Anisotropy =    43.5204

      3  H    Isotropic =    30.2667   Anisotropy =     6.5202

      4  H    Isotropic =    29.3720   Anisotropy =     6.3641

      5  H    Isotropic =    29.3720   Anisotropy =     6.3641

      6  O    Isotropic =  -104.4068   Anisotropy =   604.7752

      7  O    Isotropic =   105.0718   Anisotropy =   198.7984

      8  H    Isotropic =    25.7606   Anisotropy =     6.3117

 The electronic state is 1-A'.
 Alpha  occ. eigenvalues --  -19.17252 -19.10434 -10.29923 -10.18883  -1.11471
 Alpha  occ. eigenvalues --   -1.03178  -0.76648  -0.62847  -0.52758  -0.48045
 Alpha  occ. eigenvalues --   -0.47644  -0.42999  -0.40649  -0.38617  -0.32862
 Alpha  occ. eigenvalues --   -0.28353
 Alpha virt. eigenvalues --    0.00036   0.01781   0.07163   0.10476   0.11993
 Alpha virt. eigenvalues --    0.15904   0.21237   0.24269   0.25502   0.31125
 Alpha virt. eigenvalues --    0.32811   0.33079   0.36099   0.39513   0.42909

 Mulliken charges:
               1
     1  C    0.263950
     2  C   -0.278784
     3  H    0.072263
     4  H    0.120648
     5  H    0.120648
     6  O   -0.287102
     7  O   -0.208216
     8  H    0.196593
 Sum of Mulliken charges =  -0.00000

 Dipole moment (field-independent basis, Debye):
    X=             -0.0533    Y=             -4.2628    Z=             -0.0000  Tot=              4.2631
 Quadrupole moment (field-independent basis, Debye-Ang):
   XX=            -23.0224   YY=            -24.7072   ZZ=            -22.8406
   XY=             -0.8940   XZ=              0.0000   YZ=             -0.0000

 Normal termination of Gaussian 09 at Thu Sep 12 13:19:19 2024.
