 Gaussian 09, Revision D.01,
 Gaussian 09:  EM64L-G09RevD.01 24-Apr-2013

 ----------------------------------------------------------------------
 #p B3LYP/6-31+g(d,p) opt=(Z-matrix,maxcycle=50,maxstep=35) temperature
 =300 pop=full gfinput
 ----------------------------------------------------------------------

 -----
 ch4+h
 -----
 Symbolic Z-matrix:
 Charge =  0 Multiplicity = 2

 SCF Done:  E(UB3LYP) =  -41.0076468426     A.U. after   10 cycles
 SCF Done:  E(UB3LYP) =  -41.0162296182     A.U. after    9 cycles
 SCF Done:  E(UB3LYP) =  -41.0178847455     A.U. after   10 cycles
 SCF Done:  E(UB3LYP) =  -41.0193500721     A.U. after   10 cycles
 SCF Done:  E(UB3LYP) =  -41.0224972389     A.U. after   10 cycles
 SCF Done:  E(UB3LYP) =  -41.0245860756     A.U. after   10 cycles
 SCF Done:  E(UB3LYP) =  -41.0256090198     A.U. after   10 cycles
 SCF Done:  E(UB3LYP) =  -41.0263234908     A.U. after   10 cycles
 SCF Done:  E(UB3LYP) =  -41.0266618341     A.U. after    9 cycles
 SCF Done:  E(UB3LYP) =  -41.0267306763     A.U. after    9 cycles
 SCF Done:  E(UB3LYP) =  -41.0268581940     A.U. after    1 cycles
 SCF Done:  E(UB3LYP) =  -41.0268571090     A.U. after    5 cycles
 SCF Done:  E(UB3LYP) =  -41.0268581943     A.U. after    1 cycles
 SCF Done:  E(UB3LYP) =  -41.0268569967     A.U. after    5 cycles
 SCF Done:  E(UB3LYP) =  -41.0268581946     A.U. after    1 cycles
 SCF Done:  E(UB3LYP) =  -41.0268582739     A.U. after    4 cycles
 SCF Done:  E(UB3LYP) =  -41.0268580753     A.U. after    4 cycles
 SCF Done:  E(UB3LYP) =  -41.0268580264     A.U. after    4 cycles
 SCF Done:  E(UB3LYP) =  -41.0264665088     A.U. after    7 cycles
 SCF Done:  E(UB3LYP) =  -41.0268568995     A.U. after    3 cycles
 Optimization completed.
    -- Stationary point found.

                         Standard orientation:
 ---------------------------------------------------------------------
 Center     Atomic      Atomic             Coordinates (Angstroms)
 Number     Number       Type             X           Y           Z
 ---------------------------------------------------------------------
      1          6           0       -0.336337    0.000007    0.000005
      2          1           0       -0.698977   -0.885525    0.527737
      3          1           0       -0.700402   -0.015167   -1.030236
      4          1           0       -0.701818    0.898943    0.502477
      5          1           0        0.756574    0.001693    0.000006
      6          1           0        3.362643    0.000013   -0.000015
 ---------------------------------------------------------------------

 The electronic state is 2-A.
 Alpha  occ. eigenvalues --  -10.17185  -0.69545  -0.39451  -0.39326  -0.39325
 Alpha  occ. eigenvalues --   -0.31861
 Alpha virt. eigenvalues --    0.02017   0.06104   0.06105   0.07364   0.18169
 Alpha virt. eigenvalues --    0.18170   0.18373   0.27712   0.63852   0.63852
 Alpha virt. eigenvalues --    0.64326   0.75234   0.91046   0.91047   0.93117

  Beta  occ. eigenvalues --  -10.17170  -0.69504  -0.39316  -0.39315  -0.39311
  Beta virt. eigenvalues --   -0.06032   0.02395   0.06040   0.06041   0.08421
  Beta virt. eigenvalues --    0.18164   0.18165   0.18794   0.27642   0.63854
  Beta virt. eigenvalues --    0.63854   0.64872   0.88598   0.91051   0.91052

 Mulliken charges and spin densities:
               1          2
     1  C   -0.618542   0.022749
     2  H    0.152242  -0.000169
     3  H    0.152242  -0.000168
     4  H    0.152245  -0.000166
     5  H    0.147778  -0.006455
     6  H    0.014035   0.984209
 Sum of Mulliken charges =  -0.00000   1.00000

 Dipole moment (field-independent basis, Debye):
    X=              0.0838    Y=             -0.0000    Z=             -0.0000  Tot=              0.0838
 Quadrupole moment (field-independent basis, Debye-Ang):
   XX=             -9.3638   YY=             -9.8315   ZZ=             -9.8317
   XY=             -0.0001   XZ=              0.0001   YZ=              0.0000

 Normal termination of Gaussian 09 at Fri Sep 13 21:21:01 2024.
