 Gaussian 09, Revision A.02,
 Gaussian 09:  EM64L-G09RevA.02 11-Jun-2009

 ---------------------------------------------
 #p B3LYP/6-31g(d,p) opt freq pop=full gfinput
 ---------------------------------------------

 ------
 ethane
 ------
 Symbolic Z-matrix:
 Charge =  0 Multiplicity = 1

 SCF Done:  E(RB3LYP) =  -79.8367422380     A.U. after    9 cycles
 SCF Done:  E(RB3LYP) =  -79.8386722748     A.U. after    9 cycles
 SCF Done:  E(RB3LYP) =  -79.8387344051     A.U. after    6 cycles
 SCF Done:  E(RB3LYP) =  -79.8387381435     A.U. after    6 cycles
 Optimization completed.
    -- Stationary point found.
 Normal termination of Gaussian 09 at Tue Aug 20 22:12:17 2024.

 ----------------------------------------------------------------------
 #P Geom=AllCheck Guess=TCheck SCRF=Check GenChk RB3LYP/6-31G(d,p) Freq
 ----------------------------------------------------------------------

 ethane
 ------
 Redundant internal coordinates taken from checkpoint file:
 /home/ospite/Desktop/MMfP/Project8/gaussian_simulations/Gau-5419.chk
 Charge =  0 Multiplicity = 1

                         Standard orientation:
 ---------------------------------------------------------------------
 Center     Atomic      Atomic             Coordinates (Angstroms)
 Number     Number       Type             X           Y           Z
 ---------------------------------------------------------------------
      1          6           0       -0.000000   -0.000000    0.765276
      2          1           0       -0.000000    1.019881    1.163865
      3          6           0       -0.000000   -0.000000   -0.765276
      4          1           0        0.883243   -0.509941    1.163865
      5          1           0       -0.883243   -0.509941    1.163865
      6          1           0       -0.000000   -1.019881   -1.163865
      7          1           0       -0.883243    0.509941   -1.163865
      8          1           0        0.883243    0.509941   -1.163865
 ---------------------------------------------------------------------

 SCF Done:  E(RB3LYP) =  -79.8387381435     A.U. after    1 cycles

 The electronic state is 1-A1G.
 Alpha  occ. eigenvalues --  -10.17259 -10.17238  -0.74762  -0.61191  -0.42947
 Alpha  occ. eigenvalues --   -0.42947  -0.36289  -0.33925  -0.33925
 Alpha virt. eigenvalues --    0.10496   0.15623   0.16404   0.16404   0.19003
 Alpha virt. eigenvalues --    0.19003   0.24181   0.50812   0.53954   0.53954
 Alpha virt. eigenvalues --    0.61901   0.61901   0.66588   0.86655   0.86655

 Mulliken atomic charges:
              1
     1  C   -0.314681
     2  H    0.104894
     3  C   -0.314681
     4  H    0.104894
     5  H    0.104894
     6  H    0.104894
     7  H    0.104894
     8  H    0.104894
 Sum of Mulliken atomic charges =   0.00000

 Dipole moment (field-independent basis, Debye):
    X=             -0.0000    Y=             -0.0000    Z=              0.0000  Tot=              0.0000
 Quadrupole moment (field-independent basis, Debye-Ang):
   XX=            -14.7229   YY=            -14.7229   ZZ=            -15.1822
   XY=             -0.0000   XZ=             -0.0000   YZ=              0.0000

  Exact polarizability:  22.819  -0.000  22.819  -0.000  -0.000  24.487
 Approx polarizability:  29.608  -0.000  29.608  -0.000  -0.000  28.557

                     1                      2                      3
                    A1U                    EU                     EU
 Frequencies --   312.2211               827.0769               827.0771
 Red. masses --     1.0078                 1.0578                 1.0578
 Frc consts  --     0.0579                 0.4263                 0.4263
 IR Inten    --     0.0000                 4.6072                 4.6059

                     4                      5                      6
                    A1G                    EG                     EG
 Frequencies --  1004.6234              1225.7043              1225.7074
 Red. masses --     3.2588                 1.4666                 1.4666
 Frc consts  --     1.9378                 1.2982                 1.2982
 IR Inten    --     0.0000                 0.0000                 0.0000

                     7                      8                      9
                    A2U                    A1G                    EG
 Frequencies --  1417.3257              1439.4387              1516.6201
 Red. masses --     1.1980                 1.2557                 1.0187
 Frc consts  --     1.4179                 1.5329                 1.3806
 IR Inten    --     0.1501                 0.0000                 0.0000

                    10                     11                     12
                    EG                     EU                     EU
 Frequencies --  1516.6208              1521.2591              1521.2610
 Red. masses --     1.0187                 1.0617                 1.0617
 Frc consts  --     1.3806                 1.4476                 1.4476
 IR Inten    --     0.0000                 6.8764                 6.8786

                    13                     14                     15
                    A1G                    A2U                    EG
 Frequencies --  3043.9399              3045.0888              3099.8557
 Red. masses --     1.0368                 1.0343                 1.1020
 Frc consts  --     5.6598                 5.6506                 6.2389
 IR Inten    --     0.0000                57.5184                 0.0000

                    16                     17                     18
                    EG                     EU                     EU
 Frequencies --  3099.8558              3123.7210              3123.7228
 Red. masses --     1.1020                 1.1030                 1.1030
 Frc consts  --     6.2389                 6.3414                 6.3414
 IR Inten    --     0.0000                70.3671                70.3592

 - Thermochemistry -
 -------------------
 Temperature   298.150 Kelvin.  Pressure   1.00000 Atm.
 Atom     1 has atomic number  6 and mass  12.00000

 Molecular mass:    30.04695 amu.
 Principal axes and moments of inertia in atomic units:
                           1         2         3
     Eigenvalues --    22.46123  90.67478  90.67478
           X           -0.00000  -0.42384   0.90574
           Y            0.00000   0.90574   0.42384
           Z            1.00000  -0.00000   0.00000
 This molecule is a prolate symmetric top.
 Rotational symmetry number  6.
 Rotational temperatures (Kelvin)      3.85615     0.95521     0.95521
 Rotational constants (GHZ):          80.34917    19.90345    19.90345
 Zero-point vibrational energy     196732.6 (Joules/Mol)
                                   47.02022 (Kcal/Mol)
 Warning -- explicit consideration of   1 degrees of freedom as
           vibrations may cause significant error
 Vibrational temperatures:    449.22  1189.98  1189.98  1445.43  1763.51
          (Kelvin)           1763.52  2039.21  2071.03  2182.08  2182.08
                             2188.75  2188.75  4379.55  4381.20  4460.00
                             4460.00  4494.33  4494.33

 Zero-point correction=                           0.074931 (Hartree/Particle)
 Thermal correction to Energy=                    0.078409
 Thermal correction to Enthalpy=                  0.079353
 Thermal correction to Gibbs Free Energy=         0.053511
 Sum of electronic and zero-point Energies=            -79.763807
 Sum of electronic and thermal Energies=               -79.760329
 Sum of electronic and thermal Enthalpies=             -79.759385
 Sum of electronic and thermal Free Energies=          -79.785227

                     E (Thermal)             CV                S
                      KCal/Mol        Cal/Mol-Kelvin    Cal/Mol-Kelvin
 Total                   49.202             10.049             54.390
 Electronic               0.000              0.000              0.000
 Translational            0.889              2.981             36.134
 Rotational               0.889              2.981             16.291
 Vibrational             47.425              4.088              1.965
 Vibration     1          0.701              1.650              1.351

 Optimization completed.
    -- Stationary point found.
 Normal termination of Gaussian 09 at Tue Aug 20 22:13:13 2024.
