 Gaussian 09, Revision A.02,
 Gaussian 09:  EM64L-G09RevA.02 11-Jun-2009

 ---------------------------------------------
 #p B3LYP/6-31g(d,p) opt freq pop=full gfinput
 ---------------------------------------------

 ------
 ethene
 ------
 Symbolic Z-matrix:
 Charge =  0 Multiplicity = 1

 SCF Done:  E(RB3LYP) =  -78.5931050885     A.U. after    9 cycles
 SCF Done:  E(RB3LYP) =  -78.5937357859     A.U. after    7 cycles
 SCF Done:  E(RB3LYP) =  -78.5938075395     A.U. after    6 cycles
 Optimization completed.
    -- Stationary point found.
 Normal termination of Gaussian 09 at Tue Aug 20 19:18:47 2024.

 ----------------------------------------------------------------------
 #P Geom=AllCheck Guess=TCheck SCRF=Check GenChk RB3LYP/6-31G(d,p) Freq
 ----------------------------------------------------------------------

 ethene
 ------
 Redundant internal coordinates taken from checkpoint file:
 /home/ospite/Desktop/MMfP/Project8/gaussian_simulations/Gau-3262.chk
 Charge =  0 Multiplicity = 1

                         Standard orientation:
 ---------------------------------------------------------------------
 Center     Atomic      Atomic             Coordinates (Angstroms)
 Number     Number       Type             X           Y           Z
 ---------------------------------------------------------------------
      1          6           0       -0.000000    0.000000    0.665040
      2          6           0        0.000000    0.000000   -0.665040
      3          1           0        0.000000    0.923262    1.237826
      4          1           0        0.000000    0.923262   -1.237826
      5          1           0       -0.000000   -0.923262   -1.237826
      6          1           0       -0.000000   -0.923262    1.237826
 ---------------------------------------------------------------------

 SCF Done:  E(RB3LYP) =  -78.5938075395     A.U. after    1 cycles

 The electronic state is 1-AG.
 Alpha  occ. eigenvalues --  -10.18436 -10.18346  -0.75521  -0.57656  -0.46404
 Alpha  occ. eigenvalues --   -0.41579  -0.35185  -0.26746
 Alpha virt. eigenvalues --    0.01742   0.12239   0.14061   0.15819   0.24450
 Alpha virt. eigenvalues --    0.33135   0.47287   0.54826   0.56353   0.63744
 Alpha virt. eigenvalues --    0.65371   0.69921   0.83107   0.84463   0.91328

 Mulliken atomic charges:
              1
     1  C   -0.202411
     2  C   -0.202411
     3  H    0.101205
     4  H    0.101205
     5  H    0.101205
     6  H    0.101205
 Sum of Mulliken atomic charges =  -0.00000

 Dipole moment (field-independent basis, Debye):
    X=             -0.0000    Y=              0.0000    Z=              0.0000  Tot=              0.0000
 Quadrupole moment (field-independent basis, Debye-Ang):
   XX=            -14.9814   YY=            -12.1391   ZZ=            -12.0277
   XY=              0.0000   XZ=             -0.0000   YZ=             -0.0000

  Exact polarizability:   8.898  -0.000  20.690   0.000  -0.000  31.066
 Approx polarizability:  11.743   0.000  25.767  -0.000  -0.000  47.440

                     1                      2                      3
                    B2U                    B2G                    B3U
 Frequencies --   831.1726               960.5912               975.8364
 Red. masses --     1.0427                 1.5200                 1.1607
 Frc consts  --     0.4244                 0.8264                 0.6512
 IR Inten    --     0.6566                 0.0000                79.2588

                     4                      5                      6
                    AU                     B3G                    AG
 Frequencies --  1068.7757              1241.4076              1388.5588
 Red. masses --     1.0078                 1.5259                 1.2134
 Frc consts  --     0.6783                 1.3855                 1.3785
 IR Inten    --     0.0000                 0.0000                 0.0000

                     7                      8                      9
                    B1U                    AG                     B1U
 Frequencies --  1483.0411              1715.4728              3146.6856
 Red. masses --     1.1120                 3.1925                 1.0477
 Frc consts  --     1.4410                 5.5354                 6.1121
 IR Inten    --     5.5698                 0.0000                17.0416

                    10                     11                     12
                    AG                     B3G                    B2U
 Frequencies --  3162.4226              3222.5684              3248.4565
 Red. masses --     1.0747                 1.1146                 1.1177
 Frc consts  --     6.3327                 6.8198                 6.9490
 IR Inten    --     0.0000                 0.0000                30.8499

 - Thermochemistry -
 -------------------
 Temperature   298.150 Kelvin.  Pressure   1.00000 Atm.
 Atom     1 has atomic number  6 and mass  12.00000

 Molecular mass:    28.03130 amu.
 Principal axes and moments of inertia in atomic units:
                           1         2         3
     Eigenvalues --    12.27136  59.96353  72.23489
           X            0.00000   0.00000   1.00000
           Y            0.00000   1.00000  -0.00000
           Z            1.00000  -0.00000  -0.00000
 This molecule is an asymmetric top.
 Rotational symmetry number  4.
 Rotational temperatures (Kelvin)      7.05821     1.44444     1.19906
 Rotational constants (GHZ):         147.06934    30.09732    24.98434
 Zero-point vibrational energy     134250.8 (Joules/Mol)
                                   32.08672 (Kcal/Mol)
 Vibrational temperatures:   1195.87  1382.07  1404.01  1537.73  1786.11
          (Kelvin)           1997.82  2133.76  2468.18  4527.37  4550.02
                             4636.55  4673.80

 Zero-point correction=                           0.051133 (Hartree/Particle)
 Thermal correction to Energy=                    0.054177
 Thermal correction to Enthalpy=                  0.055121
 Thermal correction to Gibbs Free Energy=         0.030260
 Sum of electronic and zero-point Energies=            -78.542674
 Sum of electronic and thermal Energies=               -78.539631
 Sum of electronic and thermal Enthalpies=             -78.538687
 Sum of electronic and thermal Free Energies=          -78.563548

                     E (Thermal)             CV                S
                      KCal/Mol        Cal/Mol-Kelvin    Cal/Mol-Kelvin
 Total                   33.996              8.101             52.324
 Electronic               0.000              0.000              0.000
 Translational            0.889              2.981             35.927
 Rotational               0.889              2.981             15.859
 Vibrational             32.219              2.139              0.538

 Optimization completed.
    -- Stationary point found.
 Normal termination of Gaussian 09 at Tue Aug 20 19:19:18 2024.
