 Gaussian 09, Revision A.02,
 Gaussian 09:  EM64L-G09RevA.02 11-Jun-2009

 ---------------------------------------------
 #p B3LYP/6-31g(d,p) opt freq pop=full gfinput
 ---------------------------------------------

 -----------
 water dimer
 -----------
 Symbolic Z-matrix:
 Charge =  0 Multiplicity = 1

 SCF Done:  E(RB3LYP) =  -152.848711024     A.U. after   10 cycles
 SCF Done:  E(RB3LYP) =  -152.850903584     A.U. after   12 cycles
 SCF Done:  E(RB3LYP) =  -152.851082291     A.U. after   10 cycles
 SCF Done:  E(RB3LYP) =  -152.851204695     A.U. after   10 cycles
 SCF Done:  E(RB3LYP) =  -152.851286171     A.U. after   12 cycles
 SCF Done:  E(RB3LYP) =  -152.851329716     A.U. after   12 cycles
 SCF Done:  E(RB3LYP) =  -152.851376658     A.U. after   12 cycles
 SCF Done:  E(RB3LYP) =  -152.851402325     A.U. after    9 cycles
 SCF Done:  E(RB3LYP) =  -152.851433895     A.U. after   11 cycles
 SCF Done:  E(RB3LYP) =  -152.851448714     A.U. after   12 cycles
 SCF Done:  E(RB3LYP) =  -152.851452350     A.U. after    8 cycles
 SCF Done:  E(RB3LYP) =  -152.851467098     A.U. after    9 cycles
 SCF Done:  E(RB3LYP) =  -152.851497859     A.U. after   10 cycles
 SCF Done:  E(RB3LYP) =  -152.851501064     A.U. after   10 cycles
 SCF Done:  E(RB3LYP) =  -152.851501406     A.U. after    8 cycles
 Optimization completed.
    -- Stationary point found.
 Normal termination of Gaussian 09 at Tue Aug 20 23:05:52 2024.

 ----------------------------------------------------------------------
 #P Geom=AllCheck Guess=TCheck SCRF=Check GenChk RB3LYP/6-31G(d,p) Freq
 ----------------------------------------------------------------------

 water dimer
 -----------
 Redundant internal coordinates taken from checkpoint file:
 /home/ospite/Desktop/MMfP/Project8/gaussian_simulations/Gau-6931.chk
 Charge =  0 Multiplicity = 1

                         Standard orientation:
 ---------------------------------------------------------------------
 Center     Atomic      Atomic             Coordinates (Angstroms)
 Number     Number       Type             X           Y           Z
 ---------------------------------------------------------------------
      1          8           0        1.463465   -0.119508    0.016285
      2          1           0        1.952701    0.704274   -0.093684
      3          1           0        0.529824    0.152137   -0.026441
      4          8           0       -1.400942    0.126313   -0.017829
      5          1           0       -1.488676   -0.346800    0.820757
      6          1           0       -1.494037   -0.564051   -0.688280
 ---------------------------------------------------------------------

 SCF Done:  E(RB3LYP) =  -152.851501406     A.U. after    1 cycles

 The electronic state is 1-A.
 Alpha  occ. eigenvalues --  -19.17445 -19.10627  -1.03167  -0.96632  -0.54663
 Alpha  occ. eigenvalues --   -0.49006  -0.40659  -0.35099  -0.32019  -0.26567
 Alpha virt. eigenvalues --    0.04247   0.11209   0.13222   0.24150   0.72702
 Alpha virt. eigenvalues --    0.77193   0.79994   0.83673   0.86034   0.92014
 Alpha virt. eigenvalues --    0.92848   0.98236   0.98525   1.06870   1.15207

 Mulliken atomic charges:
              1
     1  O   -0.661716
     2  H    0.294087
     3  H    0.303711
     4  O   -0.586740
     5  H    0.325345
     6  H    0.325314
 Sum of Mulliken atomic charges =   0.00000

 Dipole moment (field-independent basis, Debye):
    X=             -1.8009    Y=             -0.1693    Z=              0.0347  Tot=              1.8092
 Quadrupole moment (field-independent basis, Debye-Ang):
   XX=            -12.8894   YY=            -11.8603   ZZ=            -11.3667
   XY=              6.3932   XZ=             -0.8809   YZ=              0.0833

  Exact polarizability:  13.941   1.903  10.978  -0.240  -0.106  10.104
 Approx polarizability:  15.172   1.796  13.969  -0.213  -0.215  12.299

 ******    1 imaginary frequencies (negative Signs) ******

                     1                      2                      3
                     A                      A                      A
 Frequencies --   -26.2475               138.1152               172.0467
 Red. masses --     1.0140                 1.3415                 1.0767
 Frc consts  --     0.0004                 0.0151                 0.0188
 IR Inten    --    30.6118               252.6918               186.2050

                     4                      5                      6
                     A                      A                      A
 Frequencies --   222.6830               450.9447               672.4121
 Red. masses --     3.2114                 1.0691                 1.0385
 Frc consts  --     0.0938                 0.1281                 0.2766
 IR Inten    --   166.1778                24.5747               113.2269

                     7                      8                      9
                     A                      A                      A
 Frequencies --  1661.5575              1693.1505              3687.3686
 Red. masses --     1.0812                 1.0779                 1.0541
 Frc consts  --     1.7587                 1.8205                 8.4445
 IR Inten    --    63.5466                72.5176               252.3098

                    10                     11                     12
                     A                      A                      A
 Frequencies --  3792.3915              3879.7331              3899.9058
 Red. masses --     1.0450                 1.0727                 1.0813
 Frc consts  --     8.8550                 9.5132                 9.6894
 IR Inten    --     9.5073                45.1446                46.7546

 - Thermochemistry -
 -------------------
 Temperature   298.150 Kelvin.  Pressure   1.00000 Atm.
 Atom     1 has atomic number  8 and mass  15.99491

 Molecular mass:    36.02113 amu.
 Principal axes and moments of inertia in atomic units:
                           1         2         3
     Eigenvalues --     8.98083 269.72687 270.34307
           X            0.99925   0.03861  -0.00116
           Y           -0.03826   0.99346   0.10760
           Z            0.00531  -0.10747   0.99419
 This molecule is an asymmetric top.
 Rotational symmetry number  1.
 Rotational temperatures (Kelvin)      9.64430     0.32112     0.32038
 Rotational constants (GHZ):         200.95493     6.69100     6.67574
    1 imaginary frequencies ignored.
 Zero-point vibrational energy     121243.4 (Joules/Mol)
                                   28.97786 (Kcal/Mol)
 Warning -- explicit consideration of   4 degrees of freedom as
           vibrations may cause significant error
 Vibrational temperatures:    198.72   247.54   320.39   648.81   967.45
          (Kelvin)           2390.61  2436.06  5305.29  5456.40  5582.06
                             5611.09

 Zero-point correction=                           0.046179 (Hartree/Particle)
 Thermal correction to Energy=                    0.051200
 Thermal correction to Enthalpy=                  0.052144
 Thermal correction to Gibbs Free Energy=         0.020734
 Sum of electronic and zero-point Energies=           -152.805322
 Sum of electronic and thermal Energies=              -152.800302
 Sum of electronic and thermal Enthalpies=            -152.799357
 Sum of electronic and thermal Free Energies=         -152.830768

                     E (Thermal)             CV                S
                      KCal/Mol        Cal/Mol-Kelvin    Cal/Mol-Kelvin
 Total                   32.128             13.882             66.108
 Electronic               0.000              0.000              0.000
 Translational            0.889              2.981             36.674
 Rotational               0.889              2.981             21.109
 Vibrational             30.351              7.920              8.325
 Vibration     1          0.614              1.915              2.830
 Vibration     2          0.626              1.877              2.413
 Vibration     3          0.648              1.807              1.937
 Vibration     4          0.810              1.359              0.793

 Normal termination of Gaussian 09 at Tue Aug 20 23:06:56 2024.
