 Gaussian 09, Revision A.02,
 Gaussian 09:  EM64L-G09RevA.02 11-Jun-2009

 ----------------------------------------------
 #p b3lyp/aug-cc-pVDZ opt freq pop=full gfinput
 ----------------------------------------------

 --------------------------------------------------------
 hydrogen (moldecule) with and aug-cc-pVDZ basis function
 --------------------------------------------------------
 Symbolic Z-matrix:
 Charge =  0 Multiplicity = 1

 SCF Done:  E(RB3LYP) =  -1.17373236425     A.U. after    6 cycles
 SCF Done:  E(RB3LYP) =  -1.17402505044     A.U. after    5 cycles
 Optimization completed.
    -- Stationary point found.
 Normal termination of Gaussian 09 at Sat Aug 17 19:56:16 2024.

 ----------------------------------------------------------------------
 #P Geom=AllCheck Guess=TCheck SCRF=Check GenChk RB3LYP/Aug-CC-pVDZ Fre
 q
 ----------------------------------------------------------------------

 hydrogen (moldecule) with and aug-cc-pVDZ basis function
 --------------------------------------------------------
 Redundant internal coordinates taken from checkpoint file:
 /home/ospite/Desktop/MMfP/Project6/H2/g09/DFT/Gau-12933.chk
 Charge =  0 Multiplicity = 1

                         Standard orientation:
 ---------------------------------------------------------------------
 Center     Atomic      Atomic             Coordinates (Angstroms)
 Number     Number       Type             X           Y           Z
 ---------------------------------------------------------------------
      1          1           0        0.000000    0.000000    0.380265
      2          1           0        0.000000    0.000000   -0.380265
 ---------------------------------------------------------------------

 SCF Done:  E(RB3LYP) =  -1.17402505044     A.U. after    1 cycles

 The electronic state is 1-SGG.
 Alpha  occ. eigenvalues --   -0.42801
 Alpha virt. eigenvalues --    0.01464   0.02619   0.12986   0.16779   0.16779
 Alpha virt. eigenvalues --    0.31368   0.35553   0.35553   0.45074   0.55652
 Alpha virt. eigenvalues --    0.98795   1.35877   1.35877   1.79230   1.96682

 Mulliken atomic charges:
              1
     1  H   -0.000000
     2  H   -0.000000
 Sum of Mulliken atomic charges =  -0.00000

 Dipole moment (field-independent basis, Debye):
    X=             -0.0000    Y=             -0.0000    Z=              0.0000  Tot=              0.0000
 Quadrupole moment (field-independent basis, Debye-Ang):
   XX=             -2.0867   YY=             -2.0867   ZZ=             -1.5633
   XY=             -0.0000   XZ=             -0.0000   YZ=              0.0000

  Exact polarizability:   4.628   0.000   4.628   0.000   0.000   7.224
 Approx polarizability:   4.748  -0.000   4.748  -0.000  -0.000   8.629

                     1
                    SGG
 Frequencies --  4360.2041
 Red. masses --     1.0078
 Frc consts  --    11.2888
 IR Inten    --     0.0000

 - Thermochemistry -
 -------------------
 Temperature   298.150 Kelvin.  Pressure   1.00000 Atm.
 Atom     1 has atomic number  1 and mass   1.00783

 Molecular mass:     2.01565 amu.
 Principal axes and moments of inertia in atomic units:
                           1         2         3
     Eigenvalues --    -0.00000   1.04084   1.04084
           X           -0.00000   1.00000  -0.00000
           Y            0.00000   0.00000   1.00000
           Z            1.00000   0.00000  -0.00000
 This molecule is a prolate symmetric top.
 Rotational symmetry number  2.
 Rotational temperature (Kelvin)     83.21520
 Rotational constant (GHZ):        1733.925594
 Zero-point vibrational energy      26079.8 (Joules/Mol)
                                    6.23322 (Kcal/Mol)
 Vibrational temperatures:   6273.35
          (Kelvin)

 Zero-point correction=                           0.009933 (Hartree/Particle)
 Thermal correction to Energy=                    0.012294
 Thermal correction to Enthalpy=                  0.013238
 Thermal correction to Gibbs Free Energy=        -0.001599
 Sum of electronic and zero-point Energies=             -1.164092
 Sum of electronic and thermal Energies=                -1.161731
 Sum of electronic and thermal Enthalpies=              -1.160787
 Sum of electronic and thermal Free Energies=           -1.175624

                     E (Thermal)             CV                S
                      KCal/Mol        Cal/Mol-Kelvin    Cal/Mol-Kelvin
 Total                    7.714              4.968             31.226
 Electronic               0.000              0.000              0.000
 Translational            0.889              2.981             28.080
 Rotational               0.592              1.987              3.146
 Vibrational              6.233              0.000              0.000

 Optimization completed.
    -- Stationary point found.
 Normal termination of Gaussian 09 at Sat Aug 17 19:56:20 2024.
