 Gaussian 09, Revision A.02,
 Gaussian 09:  EM64L-G09RevA.02 11-Jun-2009

 ------------------------------------------
 #p b3lyp/cc-pVQZ opt freq pop=full gfinput
 ------------------------------------------

 -----------------------------------------
 hydogen (molecule) with cc-pVQZ basis set
 -----------------------------------------
 Symbolic Z-matrix:
 Charge =  0 Multiplicity = 1

 SCF Done:  E(RB3LYP) =  -1.18053375155     A.U. after    5 cycles
 SCF Done:  E(RB3LYP) =  -1.18053629577     A.U. after    4 cycles
 Optimization completed.
    -- Stationary point found.
 Normal termination of Gaussian 09 at Sun Aug 18 15:12:41 2024.

 -------------------------------------------------------------------
 #P Geom=AllCheck Guess=TCheck SCRF=Check GenChk RB3LYP/CC-pVQZ Freq
 -------------------------------------------------------------------

 hydogen (molecule) with cc-pVQZ basis set
 -----------------------------------------
 Redundant internal coordinates taken from checkpoint file:
 /home/ospite/Desktop/MMfP/Project6/H2/g09/DFT/B3LYP/Gau-8129.chk
 Charge =  0 Multiplicity = 1

                         Standard orientation:
 ---------------------------------------------------------------------
 Center     Atomic      Atomic             Coordinates (Angstroms)
 Number     Number       Type             X           Y           Z
 ---------------------------------------------------------------------
      1          1           0        0.000000    0.000000    0.370934
      2          1           0        0.000000    0.000000   -0.370934
 ---------------------------------------------------------------------

 SCF Done:  E(RB3LYP) =  -1.18053629577     A.U. after    1 cycles

 The electronic state is 1-SGG.
 Alpha  occ. eigenvalues --   -0.43452
 Alpha virt. eigenvalues --    0.04943   0.14157   0.35558   0.35558   0.37519
 Alpha virt. eigenvalues --    0.65459   0.66892   0.66892   0.98051   1.11126
 Alpha virt. eigenvalues --    1.35356   1.71408   1.71408   1.89614   1.89614

 Mulliken atomic charges:
              1
     1  H   -0.000000
     2  H    0.000000
 Sum of Mulliken atomic charges =  -0.00000

 Dipole moment (field-independent basis, Debye):
    X=              0.0000    Y=              0.0000    Z=              0.0000  Tot=              0.0000
 Quadrupole moment (field-independent basis, Debye-Ang):
   XX=             -2.1050   YY=             -2.1050   ZZ=             -1.5205
   XY=             -0.0000   XZ=             -0.0000   YZ=              0.0000

  Exact polarizability:   3.451   0.000   3.451   0.000  -0.000   6.811
 Approx polarizability:   3.635  -0.000   3.635  -0.000  -0.000   8.079

                     1
                    SGG
 Frequencies --  4416.3961
 Red. masses --     1.0078
 Frc consts  --    11.5817
 IR Inten    --     0.0000

 - Thermochemistry -
 -------------------
 Temperature   298.150 Kelvin.  Pressure   1.00000 Atm.
 Atom     1 has atomic number  1 and mass   1.00783

 Molecular mass:     2.01565 amu.
 Principal axes and moments of inertia in atomic units:
                           1         2         3
     Eigenvalues --     0.00000   0.99039   0.99039
           X           -0.00000   1.00000  -0.00000
           Y            0.00000   0.00000   1.00000
           Z            1.00000   0.00000  -0.00000
 This molecule is a prolate symmetric top.
 Rotational symmetry number  2.
 Rotational temperature (Kelvin)     87.45404
 Rotational constant (GHZ):        1822.248618
 Zero-point vibrational energy      26415.9 (Joules/Mol)
                                    6.31356 (Kcal/Mol)
 Vibrational temperatures:   6354.20
          (Kelvin)

 Zero-point correction=                           0.010061 (Hartree/Particle)
 Thermal correction to Energy=                    0.012422
 Thermal correction to Enthalpy=                  0.013366
 Thermal correction to Gibbs Free Energy=        -0.001424
 Sum of electronic and zero-point Energies=             -1.170475
 Sum of electronic and thermal Energies=                -1.168115
 Sum of electronic and thermal Enthalpies=              -1.167170
 Sum of electronic and thermal Free Energies=           -1.181960

                     E (Thermal)             CV                S
                      KCal/Mol        Cal/Mol-Kelvin    Cal/Mol-Kelvin
 Total                    7.795              4.968             31.127
 Electronic               0.000              0.000              0.000
 Translational            0.889              2.981             28.080
 Rotational               0.592              1.987              3.047
 Vibrational              6.314              0.000              0.000

 Optimization completed.
    -- Stationary point found.
 Normal termination of Gaussian 09 at Sun Aug 18 15:12:54 2024.
