 Gaussian 09, Revision A.02,
 Gaussian 09:  EM64L-G09RevA.02 11-Jun-2009

 ------------------------------------------
 #p b3lyp/cc-pVTZ opt freq pop=full gfinput
 ------------------------------------------

 -----------------------------------------
 hydogen (molecule) with cc-pVTZ basis set
 -----------------------------------------
 Symbolic Z-matrix:
 Charge =  0 Multiplicity = 1

 SCF Done:  E(RB3LYP) =  -1.17999309691     A.U. after    6 cycles
 SCF Done:  E(RB3LYP) =  -1.17999874635     A.U. after    4 cycles
 Optimization completed.
    -- Stationary point found.
 Normal termination of Gaussian 09 at Sat Aug 17 22:43:03 2024.

 -------------------------------------------------------------------
 #P Geom=AllCheck Guess=TCheck SCRF=Check GenChk RB3LYP/CC-pVTZ Freq
 -------------------------------------------------------------------

 hydogen (molecule) with cc-pVTZ basis set
 -----------------------------------------
 Redundant internal coordinates taken from checkpoint file:
 /home/ospite/Desktop/MMfP/Project6/H2/g09/DFT/B3LYP/Gau-15367.chk
 Charge =  0 Multiplicity = 1

                         Standard orientation:
 ---------------------------------------------------------------------
 Center     Atomic      Atomic             Coordinates (Angstroms)
 Number     Number       Type             X           Y           Z
 ---------------------------------------------------------------------
      1          1           0        0.000000    0.000000    0.371397
      2          1           0        0.000000    0.000000   -0.371397
 ---------------------------------------------------------------------

 SCF Done:  E(RB3LYP) =  -1.17999874635     A.U. after    1 cycles

 The electronic state is 1-SGG.
 Alpha  occ. eigenvalues --   -0.43411
 Alpha virt. eigenvalues --    0.05813   0.19574   0.47064   0.51161   0.51161
 Alpha virt. eigenvalues --    0.91100   0.93723   0.93723   1.36724   2.03565
 Alpha virt. eigenvalues --    2.09340   2.88259   2.88259   3.07981   3.07981

 Mulliken atomic charges:
              1
     1  H   -0.000000
     2  H   -0.000000
 Sum of Mulliken atomic charges =  -0.00000

 Dipole moment (field-independent basis, Debye):
    X=             -0.0000    Y=             -0.0000    Z=             -0.0000  Tot=              0.0000
 Quadrupole moment (field-independent basis, Debye-Ang):
   XX=             -2.1062   YY=             -2.1062   ZZ=             -1.5388
   XY=             -0.0000   XZ=             -0.0000   YZ=              0.0000

  Exact polarizability:   2.611   0.000   2.611   0.000  -0.000   6.858
 Approx polarizability:   2.784  -0.000   2.784  -0.000  -0.000   8.147

                     1
                    SGG
 Frequencies --  4421.3033
 Red. masses --     1.0078
 Frc consts  --    11.6074
 IR Inten    --     0.0000

 - Thermochemistry -
 -------------------
 Temperature   298.150 Kelvin.  Pressure   1.00000 Atm.
 Atom     1 has atomic number  1 and mass   1.00783

 Molecular mass:     2.01565 amu.
 Principal axes and moments of inertia in atomic units:
                           1         2         3
     Eigenvalues --    -0.00000   0.99286   0.99286
           X           -0.00000   1.00000  -0.00000
           Y            0.00000   0.00000   1.00000
           Z            1.00000   0.00000  -0.00000
 This molecule is a prolate symmetric top.
 Rotational symmetry number  2.
 Rotational temperature (Kelvin)     87.23656
 Rotational constant (GHZ):        1817.717058
 Zero-point vibrational energy      26445.3 (Joules/Mol)
                                    6.32057 (Kcal/Mol)
 Vibrational temperatures:   6361.26
          (Kelvin)

 Zero-point correction=                           0.010072 (Hartree/Particle)
 Thermal correction to Energy=                    0.012433
 Thermal correction to Enthalpy=                  0.013377
 Thermal correction to Gibbs Free Energy=        -0.001415
 Sum of electronic and zero-point Energies=             -1.169926
 Sum of electronic and thermal Energies=                -1.167566
 Sum of electronic and thermal Enthalpies=              -1.166622
 Sum of electronic and thermal Free Energies=           -1.181414

                     E (Thermal)             CV                S
                      KCal/Mol        Cal/Mol-Kelvin    Cal/Mol-Kelvin
 Total                    7.802              4.968             31.132
 Electronic               0.000              0.000              0.000
 Translational            0.889              2.981             28.080
 Rotational               0.592              1.987              3.052
 Vibrational              6.321              0.000              0.000

 Optimization completed.
    -- Stationary point found.
 Normal termination of Gaussian 09 at Sat Aug 17 22:43:07 2024.
