 Gaussian 09, Revision A.02,
 Gaussian 09:  EM64L-G09RevA.02 11-Jun-2009

 ------------------------------------------
 #p b3lyp/cc-pVDZ opt freq pop=full gfinput
 ------------------------------------------

 -----------------------------------------
 hydogen (molecule) with cc-pVDZ basis set
 -----------------------------------------
 Symbolic Z-matrix:
 Charge =  0 Multiplicity = 1

 SCF Done:  E(RB3LYP) =  -1.17328116506     A.U. after    7 cycles
 SCF Done:  E(RB3LYP) =  -1.17360207893     A.U. after    6 cycles
 Optimization completed.
    -- Stationary point found.
 Normal termination of Gaussian 09 at Sat Aug 17 22:43:18 2024.

 -------------------------------------------------------------------
 #P Geom=AllCheck Guess=TCheck SCRF=Check GenChk RB3LYP/CC-pVDZ Freq
 -------------------------------------------------------------------

 hydogen (molecule) with cc-pVDZ basis set
 -----------------------------------------
 Redundant internal coordinates taken from checkpoint file:
 /home/ospite/Desktop/MMfP/Project6/H2/g09/DFT/B3LYP/Gau-15380.chk
 Charge =  0 Multiplicity = 1

                         Standard orientation:
 ---------------------------------------------------------------------
 Center     Atomic      Atomic             Coordinates (Angstroms)
 Number     Number       Type             X           Y           Z
 ---------------------------------------------------------------------
      1          1           0        0.000000    0.000000    0.380795
      2          1           0        0.000000    0.000000   -0.380795
 ---------------------------------------------------------------------

 SCF Done:  E(RB3LYP) =  -1.17360207893     A.U. after    1 cycles

 The electronic state is 1-SGG.
 Alpha  occ. eigenvalues --   -0.42574
 Alpha virt. eigenvalues --    0.07050   0.33266   0.69504   1.04758   1.04758
 Alpha virt. eigenvalues --    1.66219   1.76429   1.76429   3.14612

 Mulliken atomic charges:
              1
     1  H   -0.000000
     2  H   -0.000000
 Sum of Mulliken atomic charges =  -0.00000

 Dipole moment (field-independent basis, Debye):
    X=             -0.0000    Y=             -0.0000    Z=              0.0000  Tot=              0.0000
 Quadrupole moment (field-independent basis, Debye-Ang):
   XX=             -2.0436   YY=             -2.0436   ZZ=             -1.4534
   XY=             -0.0000   XZ=             -0.0000   YZ=              0.0000

  Exact polarizability:   1.191   0.000   1.191  -0.000  -0.000   6.726
 Approx polarizability:   1.270  -0.000   1.270  -0.000  -0.000   8.141

                     1
                    SGG
 Frequencies --  4370.1746
 Red. masses --     1.0078
 Frc consts  --    11.3405
 IR Inten    --     0.0000

 - Thermochemistry -
 -------------------
 Temperature   298.150 Kelvin.  Pressure   1.00000 Atm.
 Atom     1 has atomic number  1 and mass   1.00783

 Molecular mass:     2.01565 amu.
 Principal axes and moments of inertia in atomic units:
                           1         2         3
     Eigenvalues --     0.00000   1.04375   1.04375
           X           -0.00000   1.00000  -0.00000
           Y            0.00000   0.00000   1.00000
           Z            1.00000   0.00000  -0.00000
 This molecule is a prolate symmetric top.
 Rotational symmetry number  2.
 Rotational temperature (Kelvin)     82.98332
 Rotational constant (GHZ):        1729.093894
 Zero-point vibrational energy      26139.4 (Joules/Mol)
                                    6.24748 (Kcal/Mol)
 Vibrational temperatures:   6287.70
          (Kelvin)

 Zero-point correction=                           0.009956 (Hartree/Particle)
 Thermal correction to Energy=                    0.012316
 Thermal correction to Enthalpy=                  0.013261
 Thermal correction to Gibbs Free Energy=        -0.001579
 Sum of electronic and zero-point Energies=             -1.163646
 Sum of electronic and thermal Energies=                -1.161286
 Sum of electronic and thermal Enthalpies=              -1.160341
 Sum of electronic and thermal Free Energies=           -1.175181

                     E (Thermal)             CV                S
                      KCal/Mol        Cal/Mol-Kelvin    Cal/Mol-Kelvin
 Total                    7.729              4.968             31.232
 Electronic               0.000              0.000              0.000
 Translational            0.889              2.981             28.080
 Rotational               0.592              1.987              3.151
 Vibrational              6.247              0.000              0.000

 Optimization completed.
    -- Stationary point found.
 Normal termination of Gaussian 09 at Sat Aug 17 22:43:20 2024.
