 Gaussian 09, Revision A.02,
 Gaussian 09:  EM64L-G09RevA.02 11-Jun-2009

 -----------------------------------------
 #p b3lyp/STO-3G opt freq pop=full gfinput
 -----------------------------------------

 -------------------------------------------------
 hydrogen (molecule) with hf/STO-3G basis function
 -------------------------------------------------
 Symbolic Z-matrix:
 Charge =  0 Multiplicity = 1

 SCF Done:  E(RB3LYP) =  -1.16541837576     A.U. after    3 cycles
 SCF Done:  E(RB3LYP) =  -1.16552938376     A.U. after    1 cycles
 SCF Done:  E(RB3LYP) =  -1.16553549506     A.U. after    1 cycles
 Optimization completed.
    -- Stationary point found.
 Normal termination of Gaussian 09 at Sat Aug 17 19:56:01 2024.

 ------------------------------------------------------------------
 #P Geom=AllCheck Guess=TCheck SCRF=Check GenChk RB3LYP/STO-3G Freq
 ------------------------------------------------------------------

 hydrogen (molecule) with hf/STO-3G basis function
 -------------------------------------------------
 Redundant internal coordinates taken from checkpoint file:
 /home/ospite/Desktop/MMfP/Project6/H2/g09/DFT/Gau-12921.chk
 Charge =  0 Multiplicity = 1

                         Standard orientation:
 ---------------------------------------------------------------------
 Center     Atomic      Atomic             Coordinates (Angstroms)
 Number     Number       Type             X           Y           Z
 ---------------------------------------------------------------------
      1          1           0        0.000000    0.000000    0.364189
      2          1           0        0.000000    0.000000   -0.364189
 ---------------------------------------------------------------------

 SCF Done:  E(RB3LYP) =  -1.16553549506     A.U. after    1 cycles

 The electronic state is 1-SGG.
 Alpha  occ. eigenvalues --   -0.41852
 Alpha virt. eigenvalues --    0.43876

 Mulliken atomic charges:
              1
     1  H    0.000000
     2  H    0.000000
 Sum of Mulliken atomic charges =   0.00000

 Dipole moment (field-independent basis, Debye):
    X=              0.0000    Y=              0.0000    Z=              0.0000  Tot=              0.0000
 Quadrupole moment (field-independent basis, Debye-Ang):
   XX=             -1.8457   YY=             -1.8457   ZZ=             -1.4358
   XY=              0.0000   XZ=             -0.0000   YZ=              0.0000

  Exact polarizability:   0.000   0.000   0.000  -0.000   0.000   2.917
 Approx polarizability:   0.000  -0.000  -0.000  -0.000  -0.000   3.986

                     1
                    SGG
 Frequencies --  5107.7617
 Red. masses --     1.0078
 Frc consts  --    15.4916
 IR Inten    --     0.0000

 - Thermochemistry -
 -------------------
 Temperature   298.150 Kelvin.  Pressure   1.00000 Atm.
 Atom     1 has atomic number  1 and mass   1.00783

 Molecular mass:     2.01565 amu.
 Principal axes and moments of inertia in atomic units:
                           1         2         3
     Eigenvalues --     0.00000   0.95470   0.95470
           X           -0.00000   1.00000  -0.00000
           Y            0.00000   0.00000   1.00000
           Z            1.00000   0.00000  -0.00000
 This molecule is a prolate symmetric top.
 Rotational symmetry number  2.
 Rotational temperature (Kelvin)     90.72346
 Rotational constant (GHZ):        1890.372466
 Zero-point vibrational energy      30551.2 (Joules/Mol)
                                    7.30191 (Kcal/Mol)
 Vibrational temperatures:   7348.92
          (Kelvin)

 Zero-point correction=                           0.011636 (Hartree/Particle)
 Thermal correction to Energy=                    0.013997
 Thermal correction to Enthalpy=                  0.014941
 Thermal correction to Gibbs Free Energy=         0.000186
 Sum of electronic and zero-point Energies=             -1.153899
 Sum of electronic and thermal Energies=                -1.151539
 Sum of electronic and thermal Enthalpies=              -1.150595
 Sum of electronic and thermal Free Energies=           -1.165349

                     E (Thermal)             CV                S
                      KCal/Mol        Cal/Mol-Kelvin    Cal/Mol-Kelvin
 Total                    8.783              4.968             31.054
 Electronic               0.000              0.000              0.000
 Translational            0.889              2.981             28.080
 Rotational               0.592              1.987              2.974
 Vibrational              7.302              0.000              0.000

 Optimization completed.
    -- Stationary point found.
 Normal termination of Gaussian 09 at Sat Aug 17 19:56:04 2024.
